       N       E                     dE             d eps       ncg     rms          rms(c)
DAV:   1     0.267876681744E+04    0.26788E+04   -0.72509E+04   384   0.100E+03
DAV:   2     0.487440727748E+03   -0.21913E+04   -0.20247E+04   512   0.207E+02
DAV:   3    -0.439481560219E+03   -0.92692E+03   -0.90473E+03   408   0.139E+02
DAV:   4    -0.537813937245E+03   -0.98332E+02   -0.96796E+02   384   0.577E+01
DAV:   5    -0.541836149525E+03   -0.40222E+01   -0.36659E+01   448   0.101E+01    0.321E+01
DAV:   6    -0.520052303541E+03    0.21784E+02   -0.27670E+01   392   0.123E+01    0.186E+01
DAV:   7    -0.513586969569E+03    0.64653E+01   -0.26795E+01   376   0.114E+01    0.574E+00
DAV:   8    -0.513611463450E+03   -0.24494E-01   -0.16114E+00   416   0.308E+00    0.244E+00
DAV:   9    -0.513575272735E+03    0.36191E-01   -0.11284E-01   384   0.104E+00    0.548E-01
DAV:  10    -0.513572603524E+03    0.26692E-02   -0.21388E-02   392   0.435E-01    0.239E-01
DAV:  11    -0.513572529495E+03    0.74029E-04   -0.67420E-03   368   0.198E-01    0.145E-01
DAV:  12    -0.513576081702E+03   -0.35522E-02   -0.37658E-03   360   0.128E-01    0.801E-02
DAV:  13    -0.513582529834E+03   -0.64481E-02   -0.44271E-03   344   0.105E-01    0.550E-02
DAV:  14    -0.513588311262E+03   -0.57814E-02   -0.13638E-03   304   0.538E-02    0.267E-02
DAV:  15    -0.513592527568E+03   -0.42163E-02   -0.34121E-04   328   0.288E-02    0.168E-02
DAV:  16    -0.513596576663E+03   -0.40491E-02   -0.27476E-04   304   0.236E-02    0.102E-02
DAV:  17    -0.513598788265E+03   -0.22116E-02   -0.12777E-04   280   0.144E-02    0.609E-03
DAV:  18    -0.513600259290E+03   -0.14710E-02   -0.11123E-04   272   0.118E-02    0.362E-03
DAV:  19    -0.513600751384E+03   -0.49209E-03   -0.28299E-05   240   0.698E-03    0.211E-03
DAV:  20    -0.513600939078E+03   -0.18769E-03   -0.23550E-05   208   0.490E-03    0.109E-03
DAV:  21    -0.513600995314E+03   -0.56236E-04   -0.60654E-06   240   0.300E-03
   1 F= -.51360100E+03 E0= -.51350750E+03  d E =-.513601E+03
       N       E                     dE             d eps       ncg     rms          rms(c)
DAV:   1    -0.502622027815E+03    0.10979E+02   -0.18113E+03   328   0.115E+02    0.180E+01
DAV:   2    -0.505768087554E+03   -0.31461E+01   -0.55887E+01   400   0.204E+01    0.758E+00
DAV:   3    -0.504933066906E+03    0.83502E+00   -0.27917E+00   408   0.459E+00    0.516E+00
DAV:   4    -0.504616001806E+03    0.31707E+00   -0.75955E-01   368   0.259E+00    0.152E+00
DAV:   5    -0.504612083113E+03    0.39187E-02   -0.20115E-01   408   0.118E+00    0.385E-01
DAV:   6    -0.504612723615E+03   -0.64050E-03   -0.15174E-02   400   0.353E-01    0.225E-01
DAV:   7    -0.504613510523E+03   -0.78691E-03   -0.13166E-03   424   0.107E-01    0.760E-02
DAV:   8    -0.504614156813E+03   -0.64629E-03   -0.26574E-04   272   0.501E-02    0.306E-02
DAV:   9    -0.504615019917E+03   -0.86310E-03   -0.12441E-04   240   0.268E-02    0.126E-02
DAV:  10    -0.504615681273E+03   -0.66136E-03   -0.48607E-05   248   0.168E-02    0.969E-03
DAV:  11    -0.504616605355E+03   -0.92408E-03   -0.10968E-04   256   0.189E-02    0.696E-03
DAV:  12    -0.504617011847E+03   -0.40649E-03   -0.36966E-05   256   0.104E-02    0.381E-03
DAV:  13    -0.504617180663E+03   -0.16882E-03   -0.15128E-05   216   0.663E-03    0.259E-03
DAV:  14    -0.504617276554E+03   -0.95891E-04   -0.67784E-06   248   0.432E-03
   2 F= -.50461728E+03 E0= -.50461713E+03  d E =0.898372E+01
       N       E                     dE             d eps       ncg     rms          rms(c)
DAV:   1    -0.513950476529E+03   -0.93333E+01   -0.92892E+02   320   0.834E+01    0.135E+01
DAV:   2    -0.515686420350E+03   -0.17359E+01   -0.29832E+01   400   0.138E+01    0.699E+00
DAV:   3    -0.515335795947E+03    0.35062E+00   -0.11396E+00   424   0.292E+00    0.586E+00
DAV:   4    -0.515132904118E+03    0.20289E+00   -0.47590E-01   360   0.204E+00    0.143E+00
DAV:   5    -0.515139224670E+03   -0.63206E-02   -0.16435E-01   408   0.977E-01    0.350E-01
DAV:   6    -0.515139673256E+03   -0.44859E-03   -0.10645E-02   392   0.286E-01    0.229E-01
DAV:   7    -0.515140459475E+03   -0.78622E-03   -0.91995E-04   376   0.858E-02    0.127E-01
DAV:   8    -0.515141047056E+03   -0.58758E-03   -0.69284E-04   336   0.695E-02    0.205E-02
DAV:   9    -0.515141446298E+03   -0.39924E-03   -0.11792E-04   240   0.281E-02    0.128E-02
DAV:  10    -0.515142018912E+03   -0.57261E-03   -0.10212E-04   256   0.172E-02    0.820E-03
DAV:  11    -0.515142358247E+03   -0.33933E-03   -0.52193E-05   248   0.119E-02    0.795E-03
DAV:  12    -0.515142550526E+03   -0.19228E-03   -0.34722E-05   248   0.891E-03    0.288E-03
DAV:  13    -0.515142628316E+03   -0.77790E-04   -0.10466E-05   216   0.530E-03
   3 F= -.51514263E+03 E0= -.51511979E+03  d E =-.154163E+01
       N       E                     dE             d eps       ncg     rms          rms(c)
DAV:   1    -0.515590260818E+03   -0.44771E+00   -0.11393E+02   320   0.291E+01    0.180E+00
DAV:   2    -0.515734025341E+03   -0.14376E+00   -0.18565E+00   384   0.351E+00    0.130E+00
DAV:   3    -0.515715259579E+03    0.18766E-01   -0.84653E-02   392   0.885E-01    0.674E-01
DAV:   4    -0.515713275527E+03    0.19841E-02   -0.17714E-02   392   0.386E-01    0.226E-01
DAV:   5    -0.515713623999E+03   -0.34847E-03   -0.30704E-03   384   0.141E-01    0.792E-02
DAV:   6    -0.515713675246E+03   -0.51248E-04   -0.20936E-04   272   0.458E-02
   4 F= -.51571368E+03 E0= -.51569871E+03  d E =-.571047E+00
       N       E                     dE             d eps       ncg     rms          rms(c)
DAV:   1    -0.515728059828E+03   -0.14436E-01   -0.55556E+00   320   0.642E+00    0.410E-01
DAV:   2    -0.515734846697E+03   -0.67869E-02   -0.89453E-02   408   0.759E-01    0.291E-01
DAV:   3    -0.515734062995E+03    0.78370E-03   -0.36911E-03   400   0.181E-01    0.179E-01
DAV:   4    -0.515733981461E+03    0.81534E-04   -0.70319E-04   376   0.787E-02
   5 F= -.51573398E+03 E0= -.51572036E+03  d E =-.591353E+00
       N       E                     dE             d eps       ncg     rms          rms(c)
DAV:   1    -0.515955230887E+03   -0.22117E+00   -0.62180E+01   320   0.213E+01    0.147E+00
DAV:   2    -0.516026190612E+03   -0.70960E-01   -0.10929E+00   408   0.266E+00    0.971E-01
DAV:   3    -0.516010622570E+03    0.15568E-01   -0.46762E-02   376   0.637E-01    0.471E-01
DAV:   4    -0.516008775646E+03    0.18469E-02   -0.16642E-02   392   0.355E-01    0.136E-01
DAV:   5    -0.516008984305E+03   -0.20866E-03   -0.23234E-03   376   0.137E-01    0.734E-02
DAV:   6    -0.516009080441E+03   -0.96135E-04   -0.17857E-04   248   0.387E-02
   6 F= -.51600908E+03 E0= -.51598436E+03  d E =-.275099E+00
       N       E                     dE             d eps       ncg     rms          rms(c)
DAV:   1    -0.516009377442E+03   -0.39314E-03   -0.49287E-02   336   0.600E-01    0.444E-02
DAV:   2    -0.516009466644E+03   -0.89201E-04   -0.90723E-04   400   0.759E-02
   7 F= -.51600947E+03 E0= -.51598436E+03  d E =-.275485E+00
       N       E                     dE             d eps       ncg     rms          rms(c)
DAV:   1    -0.516075270968E+03   -0.65894E-01   -0.12390E+01   320   0.962E+00    0.649E-01
DAV:   2    -0.516090225978E+03   -0.14955E-01   -0.22516E-01   392   0.123E+00    0.455E-01
DAV:   3    -0.516087259966E+03    0.29660E-02   -0.11956E-02   416   0.320E-01    0.255E-01
DAV:   4    -0.516086795265E+03    0.46470E-03   -0.28580E-03   392   0.150E-01    0.921E-02
DAV:   5    -0.516086883310E+03   -0.88045E-04   -0.33765E-04   272   0.499E-02
   8 F= -.51608688E+03 E0= -.51606472E+03  d E =-.774167E-01
       N       E                     dE             d eps       ncg     rms          rms(c)
DAV:   1    -0.516087509695E+03   -0.71443E-03   -0.12765E-01   336   0.977E-01    0.667E-02
DAV:   2    -0.516087709127E+03   -0.19943E-03   -0.23714E-03   384   0.125E-01    0.466E-02
DAV:   3    -0.516087702199E+03    0.69282E-05   -0.87760E-05   240   0.305E-02
   9 F= -.51608770E+03 E0= -.51606585E+03  d E =-.782356E-01
       N       E                     dE             d eps       ncg     rms          rms(c)
DAV:   1    -0.516125418036E+03   -0.37709E-01   -0.64090E+00   320   0.706E+00    0.428E-01
DAV:   2    -0.516131667329E+03   -0.62493E-02   -0.91269E-02   392   0.767E-01    0.265E-01
DAV:   3    -0.516131061264E+03    0.60606E-03   -0.37323E-03   392   0.180E-01    0.144E-01
DAV:   4    -0.516131045937E+03    0.15327E-04   -0.69557E-04   376   0.765E-02
  10 F= -.51613105E+03 E0= -.51611202E+03  d E =-.433437E-01
       N       E                     dE             d eps       ncg     rms          rms(c)
DAV:   1    -0.516132481813E+03   -0.14205E-02   -0.33138E-01   320   0.161E+00    0.102E-01
DAV:   2    -0.516132820372E+03   -0.33856E-03   -0.45832E-03   400   0.171E-01    0.605E-02
DAV:   3    -0.516132807615E+03    0.12757E-04   -0.16104E-04   264   0.402E-02
  11 F= -.51613281E+03 E0= -.51611443E+03  d E =-.451054E-01
       N       E                     dE             d eps       ncg     rms          rms(c)
DAV:   1    -0.516144593955E+03   -0.11774E-01   -0.21091E+00   320   0.408E+00    0.296E-01
DAV:   2    -0.516147419377E+03   -0.28254E-02   -0.37802E-02   384   0.503E-01    0.176E-01
DAV:   3    -0.516147177646E+03    0.24173E-03   -0.16039E-03   392   0.127E-01    0.111E-01
DAV:   4    -0.516147158007E+03    0.19639E-04   -0.48670E-04   344   0.638E-02
  12 F= -.51614716E+03 E0= -.51612890E+03  d E =-.143504E-01
       N       E                     dE             d eps       ncg     rms          rms(c)
DAV:   1    -0.516147540202E+03   -0.36256E-03   -0.86613E-02   320   0.827E-01    0.687E-02
DAV:   2    -0.516147657269E+03   -0.11707E-03   -0.15258E-03   400   0.101E-01    0.383E-02
DAV:   3    -0.516147651801E+03    0.54676E-05   -0.58846E-05   248   0.274E-02
  13 F= -.51614765E+03 E0= -.51612947E+03  d E =-.148442E-01
       N       E                     dE             d eps       ncg     rms          rms(c)
DAV:   1    -0.516155621321E+03   -0.79641E-02   -0.17770E+00   320   0.366E+00    0.247E-01
DAV:   2    -0.516157808885E+03   -0.21876E-02   -0.31231E-02   368   0.452E-01    0.155E-01
DAV:   3    -0.516157627910E+03    0.18097E-03   -0.13420E-03   376   0.106E-01    0.996E-02
DAV:   4    -0.516157587929E+03    0.39981E-04   -0.24665E-04   216   0.515E-02
  14 F= -.51615759E+03 E0= -.51614161E+03  d E =-.993613E-02
       N       E                     dE             d eps       ncg     rms          rms(c)
DAV:   1    -0.516158369704E+03   -0.74179E-03   -0.35884E-01   320   0.164E+00    0.113E-01
DAV:   2    -0.516158798567E+03   -0.42886E-03   -0.61380E-03   376   0.200E-01    0.687E-02
DAV:   3    -0.516158769634E+03    0.28933E-04   -0.25739E-04   280   0.484E-02
  15 F= -.51615877E+03 E0= -.51614377E+03  d E =-.111178E-01
       N       E                     dE             d eps       ncg     rms          rms(c)
DAV:   1    -0.516161788389E+03   -0.29898E-02   -0.17248E+00   320   0.361E+00    0.236E-01
DAV:   2    -0.516164104253E+03   -0.23159E-02   -0.33225E-02   376   0.468E-01    0.162E-01
DAV:   3    -0.516163921495E+03    0.18276E-03   -0.16818E-03   408   0.115E-01    0.111E-01
DAV:   4    -0.516163880951E+03    0.40544E-04   -0.20398E-04   216   0.476E-02
  16 F= -.51616388E+03 E0= -.51614746E+03  d E =-.511132E-02
       N       E                     dE             d eps       ncg     rms          rms(c)
DAV:   1    -0.516163897138E+03    0.24357E-04   -0.11574E-03   312   0.950E-02    0.102E-02
DAV:   2    -0.516163903382E+03   -0.62437E-05   -0.57080E-05   224   0.207E-02
  17 F= -.51616390E+03 E0= -.51614754E+03  d E =-.513375E-02
       N       E                     dE             d eps       ncg     rms          rms(c)
DAV:   1    -0.516165521374E+03   -0.16242E-02   -0.59967E-01   320   0.212E+00    0.149E-01
DAV:   2    -0.516166291735E+03   -0.77036E-03   -0.11056E-02   384   0.265E-01    0.964E-02
DAV:   3    -0.516166206503E+03    0.85232E-04   -0.44098E-04   312   0.612E-02
  18 F= -.51616621E+03 E0= -.51614961E+03  d E =-.230312E-02
       N       E                     dE             d eps       ncg     rms          rms(c)
DAV:   1    -0.516166205714E+03    0.86022E-04   -0.14544E-02   328   0.331E-01    0.377E-02
DAV:   2    -0.516166209279E+03   -0.35650E-05   -0.18827E-04   256   0.376E-02
  19 F= -.51616621E+03 E0= -.51614958E+03  d E =-.230590E-02
       N       E                     dE             d eps       ncg     rms          rms(c)
DAV:   1    -0.516167505290E+03   -0.12996E-02   -0.50296E-01   320   0.193E+00    0.138E-01
DAV:   2    -0.516168003138E+03   -0.49785E-03   -0.81353E-03   376   0.231E-01    0.897E-02
DAV:   3    -0.516167930053E+03    0.73085E-04   -0.31496E-04   288   0.556E-02
  20 F= -.51616793E+03 E0= -.51615186E+03  d E =-.172077E-02
       N       E                     dE             d eps       ncg     rms          rms(c)
DAV:   1    -0.516167947355E+03    0.55783E-04   -0.25192E-02   328   0.434E-01    0.395E-02
DAV:   2    -0.516167959161E+03   -0.11806E-04   -0.32220E-04   296   0.479E-02
  21 F= -.51616796E+03 E0= -.51615199E+03  d E =-.174988E-02
       N       E                     dE             d eps       ncg     rms          rms(c)
DAV:   1    -0.516168389558E+03   -0.44220E-03   -0.14344E-01   320   0.104E+00    0.830E-02
DAV:   2    -0.516168555322E+03   -0.16576E-03   -0.27823E-03   384   0.137E-01    0.544E-02
DAV:   3    -0.516168521621E+03    0.33700E-04   -0.11441E-04   224   0.353E-02
  22 F= -.51616852E+03 E0= -.51615179E+03  d E =-.562461E-03
       N       E                     dE             d eps       ncg     rms          rms(c)
DAV:   1    -0.516168534956E+03    0.20365E-04   -0.27348E-03   336   0.142E-01    0.119E-02
DAV:   2    -0.516168540725E+03   -0.57691E-05   -0.69317E-05   216   0.234E-02
  23 F= -.51616854E+03 E0= -.51615192E+03  d E =-.581565E-03
       N       E                     dE             d eps       ncg     rms          rms(c)
DAV:   1    -0.516169014201E+03   -0.47924E-03   -0.82465E-02   320   0.782E-01    0.523E-02
DAV:   2    -0.516169106793E+03   -0.92593E-04   -0.13054E-03   392   0.917E-02    0.324E-02
DAV:   3    -0.516169098866E+03    0.79276E-05   -0.36277E-05   216   0.200E-02
  24 F= -.51616910E+03 E0= -.51615263E+03  d E =-.558141E-03
       N       E                     dE             d eps       ncg     rms          rms(c)
DAV:   1    -0.516169228859E+03   -0.12207E-03   -0.16107E-01   320   0.109E+00    0.744E-02
DAV:   2    -0.516169393352E+03   -0.16449E-03   -0.24636E-03   400   0.126E-01    0.474E-02
DAV:   3    -0.516169376263E+03    0.17089E-04   -0.65054E-05   216   0.273E-02
  25 F= -.51616938E+03 E0= -.51615308E+03  d E =-.835538E-03
       N       E                     dE             d eps       ncg     rms          rms(c)
DAV:   1    -0.516169669540E+03   -0.27619E-03   -0.70079E-02   328   0.732E-01    0.486E-02
DAV:   2    -0.516169761012E+03   -0.91471E-04   -0.12265E-03   376   0.901E-02    0.337E-02
DAV:   3    -0.516169752824E+03    0.81881E-05   -0.38643E-05   208   0.198E-02
  26 F= -.51616975E+03 E0= -.51615372E+03  d E =-.376561E-03
       N       E                     dE             d eps       ncg     rms          rms(c)
DAV:   1    -0.516169778401E+03   -0.17389E-04   -0.21611E-02   320   0.406E-01    0.276E-02
DAV:   2    -0.516169803570E+03   -0.25169E-04   -0.34048E-04   296   0.487E-02
  27 F= -.51616980E+03 E0= -.51615392E+03  d E =-.427307E-03
       N       E                     dE             d eps       ncg     rms          rms(c)
DAV:   1    -0.516169920972E+03   -0.14257E-03   -0.23218E-02   320   0.419E-01    0.323E-02
DAV:   2    -0.516169945896E+03   -0.24924E-04   -0.39819E-04   320   0.530E-02
  28 F= -.51616995E+03 E0= -.51615387E+03  d E =-.142326E-03
