 vasp.5.2.12 11Nov11 complex                                                    
  
 executed on             LinuxIFC date 2017.08.24  17:36:52
 running on   24 nodes
 distr:  one band on    6 nodes,    4 groups


--------------------------------------------------------------------------------------------------------


 INCAR:
 POTCAR:    PAW_PBE N 08Apr2002                   
 POTCAR:    PAW_PBE C 08Apr2002                   
 POTCAR:    PAW_PBE N 08Apr2002                   
   VRHFIN =N: s2p3                                                              
   LEXCH  = PE                                                                  
   EATOM  =   264.5486 eV,   19.4438 Ry                                         
                                                                                
   TITEL  = PAW_PBE N 08Apr2002                                                 
   LULTRA =        F    use ultrasoft PP ?                                      
   IUNSCR =        1    unscreen: 0-lin 1-nonlin 2-no                           
   RPACOR =    1.200    partial core radius                                     
   POMASS =   14.001; ZVAL   =    5.000    mass and valenz                      
   RCORE  =    1.500    outmost cutoff radius                                   
   RWIGS  =    1.400; RWIGS  =    0.741    wigner-seitz radius (au A)           
   ENMAX  =  400.000; ENMIN  =  300.000 eV                                      
   ICORE  =        2    local potential                                         
   LCOR   =        T    correct aug charges                                     
   LPAW   =        T    paw PP                                                  
   EAUG   =  627.112                                                            
   DEXC   =    0.000                                                            
   RMAX   =    1.529    core radius for proj-oper                               
   RAUG   =    1.300    factor for augmentation sphere                          
   RDEP   =    1.514    radius for radial grids                                 
   RDEPT  =    1.338    core radius for aug-charge                              
                                                                                
   Atomic configuration                                                         
    4 entries                                                                   
     n  l   j            E        occ.                                          
     1  0  0.50      -384.7179   2.0000                                         
     2  0  0.50       -18.5828   2.0000                                         
     2  1  0.50        -7.0898   3.0000                                         
     3  2  1.50        -6.8029   0.0000                                         
   Description                                                                  
     l       E           TYP  RCUT    TYP  RCUT                                 
     0    -18.5828119     23  1.200                                             
     0    -13.5018863     23  1.200                                             
     1     -7.0897853     23  1.500                                             
     1      9.5240782     23  1.500                                             
     2     -6.8029130      7  1.500                                             
  local pseudopotential read in
  partial core-charges read in
  partial kinetic energy density read in
  atomic valenz-charges read in
  non local Contribution for L=           0  read in
    real space projection operators read in
  non local Contribution for L=           0  read in
    real space projection operators read in
  non local Contribution for L=           1  read in
    real space projection operators read in
  non local Contribution for L=           1  read in
    real space projection operators read in
    PAW grid and wavefunctions read in
 
   number of l-projection  operators is LMAX  =           4
   number of lm-projection operators is LMMAX =           8
 
 POTCAR:    PAW_PBE C 08Apr2002                   
   VRHFIN =C: s2p2                                                              
   LEXCH  = PE                                                                  
   EATOM  =   147.1560 eV,   10.8157 Ry                                         
                                                                                
   TITEL  = PAW_PBE C 08Apr2002                                                 
   LULTRA =        F    use ultrasoft PP ?                                      
   IUNSCR =        1    unscreen: 0-lin 1-nonlin 2-no                           
   RPACOR =    1.200    partial core radius                                     
   POMASS =   12.011; ZVAL   =    4.000    mass and valenz                      
   RCORE  =    1.500    outmost cutoff radius                                   
   RWIGS  =    1.630; RWIGS  =    0.863    wigner-seitz radius (au A)           
   ENMAX  =  400.000; ENMIN  =  300.000 eV                                      
   ICORE  =        2    local potential                                         
   LCOR   =        T    correct aug charges                                     
   LPAW   =        T    paw PP                                                  
   EAUG   =  644.873                                                            
   DEXC   =    0.000                                                            
   RMAX   =    1.529    core radius for proj-oper                               
   RAUG   =    1.300    factor for augmentation sphere                          
   RDEP   =    1.501    radius for radial grids                                 
   RDEPT  =    1.300    core radius for aug-charge                              
                                                                                
   Atomic configuration                                                         
    4 entries                                                                   
     n  l   j            E        occ.                                          
     1  0  0.50      -273.3789   2.0000                                         
     2  0  0.50       -13.7508   2.0000                                         
     2  1  0.50        -5.2854   2.0000                                         
     3  2  1.50        -5.4423   0.0000                                         
   Description                                                                  
     l       E           TYP  RCUT    TYP  RCUT                                 
     0    -13.7508458     23  1.200                                             
     0     -8.2022199     23  1.200                                             
     1     -5.2854383     23  1.500                                             
     1     34.0145650     23  1.500                                             
     2     -5.4423304      7  1.500                                             
  local pseudopotential read in
  partial core-charges read in
  partial kinetic energy density read in
  atomic valenz-charges read in
  non local Contribution for L=           0  read in
    real space projection operators read in
  non local Contribution for L=           0  read in
    real space projection operators read in
  non local Contribution for L=           1  read in
    real space projection operators read in
  non local Contribution for L=           1  read in
    real space projection operators read in
    PAW grid and wavefunctions read in
 
   number of l-projection  operators is LMAX  =           4
   number of lm-projection operators is LMMAX =           8
 
 Optimization of the real space projectors (new method)

 maximal supplied QI-value         = 25.13
 optimisation between [QCUT,QGAM] = [ 11.56, 23.12] = [ 37.43,149.72] Ry 
 Optimized for a Real-space Cutoff    1.25 Angstroem

   l    n(q)    QCUT    max X(q) W(low)/X(q) W(high)/X(q)  e(spline) 
   0      9    11.561    79.467    0.52E-04    0.16E-03    0.37E-06
   0      9    11.561    66.151    0.51E-04    0.16E-03    0.37E-06
   1      8    11.561    18.886    0.46E-03    0.28E-03    0.80E-06
   1      8    11.561    13.488    0.47E-03    0.29E-03    0.82E-06
 Optimization of the real space projectors (new method)

 maximal supplied QI-value         = 25.13
 optimisation between [QCUT,QGAM] = [ 11.56, 23.12] = [ 37.43,149.72] Ry 
 Optimized for a Real-space Cutoff    1.04 Angstroem

   l    n(q)    QCUT    max X(q) W(low)/X(q) W(high)/X(q)  e(spline) 
   0      7    11.561   115.676    0.20E-03    0.60E-03    0.21E-06
   0      7    11.561    87.132    0.20E-03    0.59E-03    0.21E-06
   1      7    11.561     4.429    0.23E-03    0.35E-03    0.15E-06
   1      7    11.561     2.733    0.18E-03    0.25E-03    0.12E-06
  PAW_PBE N 08Apr2002                   :
 energy of atom  1       EATOM= -264.5486
 kinetic energy error for atom=    0.0125 (will be added to EATOM!!)
  PAW_PBE C 08Apr2002                   :
 energy of atom  2       EATOM= -147.1560
 kinetic energy error for atom=    0.0071 (will be added to EATOM!!)
 
 
 POSCAR: $POSCAR   2  N  C                       
  positions in direct lattice
  No initial velocities read in
 exchange correlation table for  LEXCH =        8
   RHO(1)=    0.500       N(1)  =     2000
   RHO(2)=  100.500       N(2)  =     4000
 


--------------------------------------------------------------------------------------------------------


 ion  position               nearest neighbor table
   1  0.401  0.615  0.592-  14 1.40  19 1.45  16 1.45
   2  0.340  0.571  0.470-  13 1.40  15 1.45  21 1.45
   3  0.360  0.441  0.592-  31 1.40  20 1.45  22 1.45
   4  0.488  0.652  0.408-  18 1.40  34 1.45  28 1.45
   5  0.450  0.536  0.333-  24 1.40  39 1.45  37 1.45
   6  0.383  0.370  0.470-  41 1.40  29 1.45  43 1.45
   7  0.617  0.630  0.530-  33 1.40  45 1.45  30 1.45
   8  0.550  0.464  0.667-  49 1.40  32 1.45  35 1.45
   9  0.512  0.348  0.592-  54 1.40  40 1.45  47 1.45
  10  0.640  0.559  0.408-  42 1.40  55 1.45  52 1.45
  11  0.660  0.429  0.530-  60 1.40  59 1.45  53 1.45
  12  0.599  0.385  0.408-  57 1.40  51 1.45  58 1.45
  13  0.329  0.536  0.530-   2 1.40  22 1.45  14 1.45
  14  0.360  0.559  0.592-   1 1.40  20 1.45  13 1.45
  15  0.383  0.630  0.470-  16 1.40   2 1.45  18 1.45
  16  0.413  0.652  0.530-  15 1.40  17 1.45   1 1.45
  17  0.482  0.674  0.530-  28 1.40  16 1.45  23 1.45
  18  0.421  0.630  0.408-   4 1.40  24 1.45  15 1.45
  19  0.462  0.615  0.630-  27 1.40   1 1.45  23 1.45
  20  0.379  0.500  0.630-  25 1.40  14 1.45   3 1.45
  21  0.352  0.535  0.408-  26 1.40  24 1.45   2 1.45
  22  0.329  0.464  0.530-  29 1.40  13 1.45   3 1.45
  23  0.512  0.652  0.592-  30 1.40  19 1.45  17 1.45
  24  0.402  0.571  0.370-   5 1.40  18 1.45  21 1.45
  25  0.438  0.500  0.667-  20 1.40  27 1.45  35 1.45
  26  0.352  0.465  0.408-  21 1.40  36 1.45  29 1.45
  27  0.481  0.559  0.667-  19 1.40  25 1.45  32 1.45
  28  0.518  0.674  0.470-  17 1.40  33 1.45   4 1.45
  29  0.340  0.429  0.470-  22 1.40   6 1.45  26 1.45
  30  0.579  0.630  0.592-  23 1.40  38 1.45   7 1.45
  31  0.401  0.385  0.592-   3 1.40  40 1.45  41 1.45
  32  0.550  0.536  0.667-  38 1.40   8 1.45  27 1.45
  33  0.587  0.652  0.470-   7 1.40  28 1.45  42 1.45
  34  0.538  0.615  0.370-  37 1.40  42 1.45   4 1.45
  35  0.481  0.441  0.667-  40 1.40  25 1.45   8 1.45
  36  0.402  0.429  0.370-  39 1.40  43 1.45  26 1.45
  37  0.519  0.559  0.333-  34 1.40  46 1.45   5 1.45
  38  0.598  0.571  0.630-  32 1.40  30 1.45  48 1.45
  39  0.450  0.464  0.333-  36 1.40   5 1.45  44 1.45
  40  0.462  0.385  0.630-  35 1.40  31 1.45   9 1.45
  41  0.413  0.348  0.530-   6 1.40  47 1.45  31 1.45
  42  0.599  0.615  0.408-  10 1.40  34 1.45  33 1.45
  43  0.421  0.370  0.408-  50 1.40  36 1.45   6 1.45
  44  0.519  0.441  0.333-  51 1.40  46 1.45  39 1.45
  45  0.660  0.571  0.530-  52 1.40   7 1.45  48 1.45
  46  0.562  0.500  0.333-  55 1.40  44 1.45  37 1.45
  47  0.482  0.326  0.530-  56 1.40  41 1.45   9 1.45
  48  0.648  0.535  0.592-  53 1.40  38 1.45  45 1.45
  49  0.598  0.429  0.630-   8 1.40  54 1.45  53 1.45
  50  0.488  0.348  0.408-  43 1.40  51 1.45  56 1.45
  51  0.538  0.385  0.370-  44 1.40  12 1.45  50 1.45
  52  0.671  0.536  0.470-  45 1.40  60 1.45  10 1.45
  53  0.648  0.465  0.592-  48 1.40  49 1.45  11 1.45
  54  0.579  0.370  0.592-   9 1.40  49 1.45  59 1.45
  55  0.621  0.500  0.370-  46 1.40  10 1.45  57 1.45
  56  0.518  0.326  0.470-  47 1.40  58 1.45  50 1.45
  57  0.640  0.441  0.408-  12 1.40  55 1.45  60 1.45
  58  0.587  0.348  0.470-  59 1.40  56 1.45  12 1.45
  59  0.617  0.370  0.530-  58 1.40  11 1.45  54 1.45
  60  0.671  0.464  0.470-  11 1.40  52 1.45  57 1.45
 
  LATTYP: Found a simple cubic cell.
 ALAT       =    20.0000000000
  
  Lattice vectors:
  
 A1 = (  20.0000000000,   0.0000000000,   0.0000000000)
 A2 = (   0.0000000000,  20.0000000000,   0.0000000000)
 A3 = (   0.0000000000,   0.0000000000,  20.0000000000)
 Subroutine PRICEL returns:
 Original cell was already a primitive cell.
 

Analysis of symmetry for initial positions (statically):

 Routine SETGRP: Setting up the symmetry group for a 
 simple cubic supercell.


 Subroutine GETGRP returns: Found  2 space group operations
 (whereof  2 operations were pure point group operations)
 out of a pool of 48 trial point group operations.


The static configuration has the point symmetry S_2 .

Analysis of symmetry for dynamics (positions and initial velocities):

 Subroutine DYNSYM returns: Found  2 space group operations
 (whereof  2 operations were pure point group operations)
 out of a pool of  2 trial space group operations
 (whereof  2 operations were pure point group operations)
 and found also     1 'primitive' translations


The dynamic configuration has the point symmetry S_2 .

Analysis of constrained symmetry for selective dynamics:

 Subroutine DYNSYM returns: Found  2 space group operations
 (whereof  2 operations were pure point group operations)
 out of a pool of  2 trial space group operations
 (whereof  2 operations were pure point group operations)
 and found also     1 'primitive' translations


The constrained configuration has the point symmetry S_2 .
 
 
 KPOINTS: AUTO                                    

Automatic generation of k-mesh.
 
 Subroutine IBZKPT returns following result:
 ===========================================
 
 Found      1 irreducible k-points:
 
 Following reciprocal coordinates:
            Coordinates               Weight
  0.000000  0.000000  0.000000      1.000000
 
 Following cartesian coordinates:
            Coordinates               Weight
  0.000000  0.000000  0.000000      1.000000
 


--------------------------------------------------------------------------------------------------------




 Dimension of arrays:
   k-points           NKPTS =      1   k-points in BZ     NKDIM =      1   number of bands    NBANDS=    160
   number of dos      NEDOS =    301   number of ions     NIONS =     60
   non local maximal  LDIM  =      4   non local SUM 2l+1 LMDIM =      8
   total plane-waves  NPLWV = ******
   max r-space proj   IRMAX =   1476   max aug-charges    IRDMAX=   2360
   dimension x,y,z NGX =   112 NGY =  112 NGZ =  112
   dimension x,y,z NGXF=   224 NGYF=  224 NGZF=  224
   support grid    NGXF=   224 NGYF=  224 NGZF=  224
   ions per type =              12  48
 NGX,Y,Z   is equivalent  to a cutoff of   9.31,  9.31,  9.31 a.u.
 NGXF,Y,Z  is equivalent  to a cutoff of  18.62, 18.62, 18.62 a.u.


 I would recommend the setting:
   dimension x,y,z NGX =   112 NGY =  112 NGZ =  112
 SYSTEM =  cluster                                 
 POSCAR =  $POSCAR   2  N  C                       

 Startparameter for this run:
   NWRITE =      2    write-flag & timer
   PREC   = normal    normal or accurate (medium, high low for compatibility)
   ISTART =      0    job   : 0-new  1-cont  2-samecut
   ICHARG =      2    charge: 1-file 2-atom 10-const
   ISPIN  =      1    spin polarized calculation?
   LNONCOLLINEAR =      F non collinear calculations
   LSORBIT =      F    spin-orbit coupling
   INIWAV =      1    electr: 0-lowe 1-rand  2-diag
   LASPH  =      F    aspherical Exc in radial PAW
   METAGGA=      F    non-selfconsistent MetaGGA calc.

 Electronic Relaxation 1
   ENCUT  =  520.0 eV  38.22 Ry    6.18 a.u.  37.19 37.19 37.19*2*pi/ulx,y,z
   ENINI  =  520.0     initial cutoff
   ENAUG  =  644.9 eV  augmentation charge cutoff
   NELM   =     60;   NELMIN=  2; NELMDL= -5     # of ELM steps 
   EDIFF  = 0.1E-03   stopping-criterion for ELM
   LREAL  =      T    real-space projection
   NLSPLINE    = F    spline interpolate recip. space projectors
   LCOMPAT=      F    compatible to vasp.4.4
   GGA_COMPAT  = T    GGA compatible to vasp.4.4-vasp.4.6
   LMAXPAW     = -100 max onsite density
   LMAXMIX     =    2 max onsite mixed and CHGCAR
   VOSKOWN=      0    Vosko Wilk Nusair interpolation
   ROPT   =   -0.00050  -0.00050
 Ionic relaxation
   EDIFFG = -.2E-01   stopping-criterion for IOM
   NSW    =     70    number of steps for IOM
   NBLOCK =      1;   KBLOCK =     70    inner block; outer block 
   IBRION =      2    ionic relax: 0-MD 1-quasi-New 2-CG
   NFREE  =      1    steps in history (QN), initial steepest desc. (CG)
   ISIF   =      2    stress and relaxation
   IWAVPR =     11    prediction:  0-non 1-charg 2-wave 3-comb
   ISYM   =      2    0-nonsym 1-usesym 2-fastsym
   LCORR  =      T    Harris-Foulkes like correction to forces

   POTIM  = 0.5000    time-step for ionic-motion
   TEIN   =    0.0    initial temperature
   TEBEG  =    0.0;   TEEND  =   0.0 temperature during run
   SMASS  =  -3.00    Nose mass-parameter (am)
   estimated Nose-frequenzy (Omega)   =  0.10E-29 period in steps =****** mass=  -0.914E-26a.u.
   SCALEE = 1.0000    scale energy and forces
   NPACO  =    256;   APACO  = 16.0  distance and # of slots for P.C.
   PSTRESS=    0.0 pullay stress

  Mass of Ions in am
   POMASS =  14.00 12.01
  Ionic Valenz
   ZVAL   =   5.00  4.00
  Atomic Wigner-Seitz radii
   RWIGS  =  -1.00 -1.00
  virtual crystal weights 
   VCA    =   1.00  1.00
   NELECT =     252.0000    total number of electrons
   NUPDOWN=      -1.0000    fix difference up-down

 DOS related values:
   EMIN   =  10.00;   EMAX   =-10.00  energy-range for DOS
   EFERMI =   0.00
   ISMEAR =     0;   SIGMA  =   0.20  broadening in eV -4-tet -1-fermi 0-gaus

 Electronic relaxation 2 (details)
   IALGO  =     38    algorithm
   LDIAG  =      T    sub-space diagonalisation (order eigenvalues)
   LSUBROT=      T    optimize rotation matrix (better conditioning)
   TURBO    =      0    0=normal 1=particle mesh
   IRESTART =      0    0=no restart 2=restart with 2 vectors
   NREBOOT  =      0    no. of reboots
   NMIN     =      0    reboot dimension
   EREF     =   0.00    reference energy to select bands
   IMIX   =      4    mixing-type and parameters
     AMIX     =   0.40;   BMIX     =  1.00
     AMIX_MAG =   1.60;   BMIX_MAG =  1.00
     AMIN     =   0.10
     WC   =   100.;   INIMIX=   1;  MIXPRE=   1

 Intra band minimization:
   WEIMIN = 0.0010     energy-eigenvalue tresh-hold
   EBREAK =  0.16E-06  absolut break condition
   DEPER  =   0.30     relativ break condition  

   TIME   =   0.40     timestep for ELM

  volume/ion in A,a.u.               =     133.33       899.78
  Fermi-wavevector in a.u.,A,eV,Ry     =   0.517025  0.977036  3.637042  0.267315
  Thomas-Fermi vector in A             =   1.533239
 
 Write flags
   LWAVE  =      F    write WAVECAR
   LCHARG =      F    write CHGCAR
   LVTOT  =      F    write LOCPOT, total local potential
   LVHAR  =      F    write LOCPOT, Hartree potential only
   LELF   =      F    write electronic localiz. function (ELF)
   LORBIT =      0    0 simple, 1 ext, 2 COOP (PROOUT)


 Dipole corrections
   LMONO  =      F    monopole corrections only (constant potential shift)
   LDIPOL =      F    correct potential (dipole corrections)
   IDIPOL =      0    1-x, 2-y, 3-z, 4-all directions 
   EPSILON=  1.0000000 bulk dielectric constant

 Exchange correlation treatment:
   GGA     =    --    GGA type
   LEXCH   =     8    internal setting for exchange type
   VOSKOWN=      0    Vosko Wilk Nusair interpolation
   LHFCALC =     F    Hartree Fock is set to
   LHFONE  =     F    Hartree Fock one center treatment
   AEXX    =    0.0000 exact exchange contribution

 Linear response parameters
   LEPSILON=     F    determine dielectric tensor
   LRPA    =     F    only Hartree local field effects (RPA)
   LNABLA  =     F    use nabla operator in PAW spheres
   LVEL    =     F    velocity operator in full k-point grid
   LINTERFAST=   F  fast interpolation
   KINTER  =     0    interpolate to denser k-point grid
   CSHIFT  =0.1000    complex shift for real part using Kramers Kronig
   OMEGAMAX=  -1.0    maximum frequency
   RTIME   =    0.100 relaxation time in fs

 Orbital magnetization related:
   ORBITALMAG=     F  switch on orbital magnetization
   LCHIMAG   =     F  perturbation theory with respect to B field
   DQ        =  0.001000  dq finite difference perturbation B field



--------------------------------------------------------------------------------------------------------


 conjugate gradient relaxation of ions
   using selective dynamics as specified on POSCAR
 charge density and potential will be updated during run
 non-spin polarized calculation
 Variant of blocked Davidson
 Davidson routine will perform the subspace rotation
 perform sub-space diagonalisation
    after iterative eigenvector-optimisation
 modified Broyden-mixing scheme, WC =      100.0
 initial mixing is a Kerker type mixing with AMIX =  0.4000 and BMIX =      1.0000
 Hartree-type preconditioning will be used
 using additional bands           34
 real space projection scheme for non local part
 use partial core corrections
 calculate Harris-corrections to forces 
   (improved forces if not selfconsistent)
 use gradient corrections 
 use of overlap-Matrix (Vanderbilt PP)
 Gauss-broadening in eV      SIGMA  =   0.20


--------------------------------------------------------------------------------------------------------


  energy-cutoff  :      520.00
  volume of cell :     8000.00
      direct lattice vectors                 reciprocal lattice vectors
    20.000000000  0.000000000  0.000000000     0.050000000  0.000000000  0.000000000
     0.000000000 20.000000000  0.000000000     0.000000000  0.050000000  0.000000000
     0.000000000  0.000000000 20.000000000     0.000000000  0.000000000  0.050000000

  length of vectors
    20.000000000 20.000000000 20.000000000     0.050000000  0.050000000  0.050000000


 
 k-points in units of 2pi/SCALE and weight: AUTO                                    
   0.00000000  0.00000000  0.00000000       1.000
 
 k-points in reciprocal lattice and weights: AUTO                                    
   0.00000000  0.00000000  0.00000000       1.000
 
 position of ions in fractional coordinates (direct lattice) 
   0.40069898  0.61539440  0.59156591
   0.34005895  0.57129154  0.47023862
   0.35961295  0.44122109  0.59156856
   0.48753194  0.65167482  0.40843123
   0.45001194  0.53632576  0.33343239
   0.38278657  0.36995097  0.47023975
   0.61721343  0.63004903  0.52976025
   0.54998806  0.46367424  0.66656761
   0.51246806  0.34832518  0.59156877
   0.64038705  0.55877891  0.40843144
   0.65994105  0.42870846  0.52976138
   0.59930102  0.38460560  0.40843409
   0.32870105  0.53632625  0.52976038
   0.35961295  0.55877891  0.59156856
   0.38278657  0.63004903  0.47023975
   0.41252394  0.65168580  0.52975038
   0.48160436  0.67415348  0.52975418
   0.42098228  0.63005519  0.40843484
   0.46247967  0.61535003  0.62975505
   0.37871272  0.50000000  0.62973799
   0.35185835  0.53497362  0.40842420
   0.32870105  0.46367375  0.52976038
   0.51246806  0.65167482  0.59156877
   0.40189071  0.57127946  0.37025257
   0.43820940  0.50000000  0.66652764
   0.35185835  0.46502638  0.40842420
   0.48088264  0.55877799  0.66655103
   0.51839564  0.67415348  0.47024582
   0.34005895  0.42870846  0.47023862
   0.57901772  0.63005519  0.59156516
   0.40069898  0.38460560  0.59156591
   0.54998806  0.53632576  0.66656761
   0.58747606  0.65168580  0.47024962
   0.53752033  0.61535003  0.37024495
   0.48088264  0.44122201  0.66655103
   0.40189071  0.42872054  0.37025257
   0.51911736  0.55877799  0.33344897
   0.59810929  0.57127946  0.62974743
   0.45001194  0.46367424  0.33343239
   0.46247967  0.38464997  0.62975505
   0.41252394  0.34831420  0.52975038
   0.59930102  0.61539440  0.40843409
   0.42098228  0.36994481  0.40843484
   0.51911736  0.44122201  0.33344897
   0.65994105  0.57129154  0.52976138
   0.56179060  0.50000000  0.33347236
   0.48160436  0.32584652  0.52975418
   0.64814165  0.53497362  0.59157580
   0.59810929  0.42872054  0.62974743
   0.48753194  0.34832518  0.40843123
   0.53752033  0.38464997  0.37024495
   0.67129895  0.53632625  0.47023962
   0.64814165  0.46502638  0.59157580
   0.57901772  0.36994481  0.59156516
   0.62128728  0.50000000  0.37026201
   0.51839564  0.32584652  0.47024582
   0.64038705  0.44122109  0.40843144
   0.58747606  0.34831420  0.47024962
   0.61721343  0.36995097  0.52976025
   0.67129895  0.46367375  0.47023962
 
 position of ions in cartesian coordinates  (Angst):
   8.01397969 12.30788792 11.83131816
   6.80117906 11.42583079  9.40477249
   7.19225899  8.82442176 11.83137123
   9.75063885 13.03349632  8.16862454
   9.00023890 10.72651523  6.66864776
   7.65573146  7.39901932  9.40479507
  12.34426854 12.60098068 10.59520493
  10.99976110  9.27348477 13.33135224
  10.24936115  6.96650368 11.83137546
  12.80774101 11.17557824  8.16862877
  13.19882094  8.57416921 10.59522751
  11.98602031  7.69211208  8.16868184
   6.57402107 10.72652505 10.59520755
   7.19225899 11.17557824 11.83137123
   7.65573146 12.60098068  9.40479507
   8.25047871 13.03371596 10.59500757
   9.63208713 13.48306953 10.59508361
   8.41964559 12.60110390  8.16869677
   9.24959341 12.30700053 12.59510097
   7.57425444 10.00000000 12.59475980
   7.03716696 10.69947232  8.16848406
   6.57402107  9.27347495 10.59520755
  10.24936115 13.03349632 11.83137546
   8.03781418 11.42558919  7.40505143
   8.76418800 10.00000000 13.33055274
   7.03716696  9.30052768  8.16848406
   9.61765273 11.17555970 13.33102066
  10.36791287 13.48306953  9.40491639
   6.80117906  8.57416921  9.40477249
  11.58035441 12.60110390 11.83130323
   8.01397969  7.69211208 11.83131816
  10.99976110 10.72651523 13.33135224
  11.74952129 13.03371596  9.40499243
  10.75040659 12.30700053  7.40489903
   9.61765273  8.82444030 13.33102066
   8.03781418  8.57441081  7.40505143
  10.38234727 11.17555970  6.66897934
  11.96218582 11.42558919 12.59494857
   9.00023890  9.27348477  6.66864776
   9.24959341  7.69299947 12.59510097
   8.25047871  6.96628404 10.59500757
  11.98602031 12.30788792  8.16868184
   8.41964559  7.39889610  8.16869677
  10.38234727  8.82444030  6.66897934
  13.19882094 11.42583079 10.59522751
  11.23581200 10.00000000  6.66944726
   9.63208713  6.51693047 10.59508361
  12.96283304 10.69947232 11.83151594
  11.96218582  8.57441081 12.59494857
   9.75063885  6.96650368  8.16862454
  10.75040659  7.69299947  7.40489903
  13.42597893 10.72652505  9.40479245
  12.96283304  9.30052768 11.83151594
  11.58035441  7.39889610 11.83130323
  12.42574556 10.00000000  7.40524020
  10.36791287  6.51693047  9.40491639
  12.80774101  8.82442176  8.16862877
  11.74952129  6.96628404  9.40499243
  12.34426854  7.39901932 10.59520493
  13.42597893  9.27347495  9.40479245
 


--------------------------------------------------------------------------------------------------------


 k-point  1 :  0.00000.00000.0000  plane waves:  215503

 maximum and minimum number of plane-waves per node :     35931    35903

 maximum number of plane-waves:    215503
 maximum index in each direction: 
   IXMAX=   37   IYMAX=   37   IZMAX=   37
   IXMIN=  -37   IYMIN=  -37   IZMIN=  -37

 WARNING: aliasing errors must be expected set NGX to 150 to avoid them
 WARNING: aliasing errors must be expected set NGY to 150 to avoid them
 WARNING: aliasing errors must be expected set NGZ to 150 to avoid them
 aliasing errors are usually negligible using standard VASP settings
 and one can safely disregard these warnings

 real space projection operators:
  total allocation   :       3479.00 KBytes
  max/ min on nodes  :        585.38        575.00


 parallel 3D FFT for wavefunctions:
    minimum data exchange during FFTs selected (reduces bandwidth)
 parallel 3D FFT for charge:
    minimum data exchange during FFTs selected (reduces bandwidth)


 total amount of memory used by VASP on root node   117111. kBytes
========================================================================

   base      :      30000. kBytes
   nonlr-proj:       2174. kBytes
   fftplans  :      24017. kBytes
   grid      :      37845. kBytes
   one-center:         30. kBytes
   wavefun   :      23045. kBytes
 
 Broyden mixing: mesh for mixing (old mesh)
   NGX = 75   NGY = 75   NGZ = 75
  (NGX  =224   NGY  =224   NGZ  =224)
  gives a total of 421875 points

 initial charge density was supplied:
 charge density of overlapping atoms calculated
 number of electron     252.0000000 magnetization 
 keeping initial charge density in first step


--------------------------------------------------------------------------------------------------------


 Maximum index for non-local projection operator          245
 Maximum index for augmentation-charges          196 (set IRDMAX)


--------------------------------------------------------------------------------------------------------


 First call to EWALD:  gamma=   0.089
 Maximum number of real-space cells 3x 3x 3
 Maximum number of reciprocal cells 3x 3x 3

    FEWALD:  cpu time    0.02: real time    0.02


----------------------------------------- Iteration    1(   1)  ---------------------------------------


    POTLOK:  cpu time    0.70: real time    0.85
    SETDIJ:  cpu time    0.01: real time    0.09
     EDDAV:  cpu time    8.08: real time    8.68
       DOS:  cpu time    0.00: real time    0.06
    --------------------------------------------
      LOOP:  cpu time    8.80: real time    9.69

 eigenvalue-minimisations  :   384
 total energy-change (2. order) : 0.2678767E+04  (-0.7250924E+04)
 number of electron     252.0000000 magnetization 
 augmentation part      252.0000000 magnetization 

 Free energy of the ion-electron system (eV)
  ---------------------------------------------------
  alpha Z        PSCENC =        39.19705474
  Ewald energy   TEWEN  =     49057.76226428
  -1/2 Hartree   DENC   =    -56402.51230345
  -exchange  EXHF       =         0.00000000
  -V(xc)+E(xc)   XCENC  =       871.55059193
  PAW double counting   =      7668.25100558    -7709.87429350
  entropy T*S    EENTRO =        -0.73126609
  eigenvalues    EBANDS =     -1082.45595956
  atomic energy  EATOM  =     10237.57972351
  ---------------------------------------------------
  free energy    TOTEN  =      2678.76681744 eV

  energy without entropy =     2679.49808353  energy(sigma->0) =     2679.13245049


--------------------------------------------------------------------------------------------------------




----------------------------------------- Iteration    1(   2)  ---------------------------------------


     EDDAV:  cpu time   10.16: real time   10.19
       DOS:  cpu time    0.00: real time    0.00
    --------------------------------------------
      LOOP:  cpu time   10.17: real time   10.47

 eigenvalue-minimisations  :   512
 total energy-change (2. order) :-0.2191326E+04  (-0.2024662E+04)
 number of electron     252.0000000 magnetization 
 augmentation part      252.0000000 magnetization 

 Free energy of the ion-electron system (eV)
  ---------------------------------------------------
  alpha Z        PSCENC =        39.19705474
  Ewald energy   TEWEN  =     49057.76226428
  -1/2 Hartree   DENC   =    -56402.51230345
  -exchange  EXHF       =         0.00000000
  -V(xc)+E(xc)   XCENC  =       871.55059193
  PAW double counting   =      7668.25100558    -7709.87429350
  entropy T*S    EENTRO =        -0.34640919
  eigenvalues    EBANDS =     -3274.16690615
  atomic energy  EATOM  =     10237.57972351
  ---------------------------------------------------
  free energy    TOTEN  =       487.44072775 eV

  energy without entropy =      487.78713694  energy(sigma->0) =      487.61393234


--------------------------------------------------------------------------------------------------------




----------------------------------------- Iteration    1(   3)  ---------------------------------------


     EDDAV:  cpu time    8.43: real time    8.47
       DOS:  cpu time    0.00: real time    0.00
    --------------------------------------------
      LOOP:  cpu time    8.44: real time    8.48

 eigenvalue-minimisations  :   408
 total energy-change (2. order) :-0.9269223E+03  (-0.9047274E+03)
 number of electron     252.0000000 magnetization 
 augmentation part      252.0000000 magnetization 

 Free energy of the ion-electron system (eV)
  ---------------------------------------------------
  alpha Z        PSCENC =        39.19705474
  Ewald energy   TEWEN  =     49057.76226428
  -1/2 Hartree   DENC   =    -56402.51230345
  -exchange  EXHF       =         0.00000000
  -V(xc)+E(xc)   XCENC  =       871.55059193
  PAW double counting   =      7668.25100558    -7709.87429350
  entropy T*S    EENTRO =        -0.16502776
  eigenvalues    EBANDS =     -4201.27057554
  atomic energy  EATOM  =     10237.57972351
  ---------------------------------------------------
  free energy    TOTEN  =      -439.48156022 eV

  energy without entropy =     -439.31653246  energy(sigma->0) =     -439.39904634


--------------------------------------------------------------------------------------------------------




----------------------------------------- Iteration    1(   4)  ---------------------------------------


     EDDAV:  cpu time    8.04: real time    8.10
       DOS:  cpu time    0.00: real time    0.00
    --------------------------------------------
      LOOP:  cpu time    8.04: real time    8.12

 eigenvalue-minimisations  :   384
 total energy-change (2. order) :-0.9833238E+02  (-0.9679563E+02)
 number of electron     252.0000000 magnetization 
 augmentation part      252.0000000 magnetization 

 Free energy of the ion-electron system (eV)
  ---------------------------------------------------
  alpha Z        PSCENC =        39.19705474
  Ewald energy   TEWEN  =     49057.76226428
  -1/2 Hartree   DENC   =    -56402.51230345
  -exchange  EXHF       =         0.00000000
  -V(xc)+E(xc)   XCENC  =       871.55059193
  PAW double counting   =      7668.25100558    -7709.87429350
  entropy T*S    EENTRO =        -0.09561581
  eigenvalues    EBANDS =     -4299.67236452
  atomic energy  EATOM  =     10237.57972351
  ---------------------------------------------------
  free energy    TOTEN  =      -537.81393725 eV

  energy without entropy =     -537.71832143  energy(sigma->0) =     -537.76612934


--------------------------------------------------------------------------------------------------------




----------------------------------------- Iteration    1(   5)  ---------------------------------------


     EDDAV:  cpu time    9.09: real time    9.18
       DOS:  cpu time    0.00: real time    0.00
    CHARGE:  cpu time    0.77: real time    0.90
    MIXING:  cpu time    0.02: real time    0.09
    --------------------------------------------
      LOOP:  cpu time    9.89: real time   10.19

 eigenvalue-minimisations  :   448
 total energy-change (2. order) :-0.4022212E+01  (-0.3665930E+01)
 number of electron     251.9999932 magnetization 
 augmentation part        8.0943877 magnetization 

 Broyden mixing:
  rms(total) = 0.32122E+01    rms(broyden)= 0.32114E+01
  rms(prec ) = 0.34291E+01
  weight for this iteration     100.00

 Free energy of the ion-electron system (eV)
  ---------------------------------------------------
  alpha Z        PSCENC =        39.19705474
  Ewald energy   TEWEN  =     49057.76226428
  -1/2 Hartree   DENC   =    -56402.51230345
  -exchange  EXHF       =         0.00000000
  -V(xc)+E(xc)   XCENC  =       871.55059193
  PAW double counting   =      7668.25100558    -7709.87429350
  entropy T*S    EENTRO =        -0.09759925
  eigenvalues    EBANDS =     -4303.69259336
  atomic energy  EATOM  =     10237.57972351
  ---------------------------------------------------
  free energy    TOTEN  =      -541.83614953 eV

  energy without entropy =     -541.73855028  energy(sigma->0) =     -541.78734990


--------------------------------------------------------------------------------------------------------




----------------------------------------- Iteration    1(   6)  ---------------------------------------


    POTLOK:  cpu time    0.63: real time    0.63
    SETDIJ:  cpu time    0.01: real time    0.01
     EDDAV:  cpu time    8.20: real time    8.24
       DOS:  cpu time    0.00: real time    0.00
    CHARGE:  cpu time    0.77: real time    0.77
    MIXING:  cpu time    0.02: real time    0.16
    --------------------------------------------
      LOOP:  cpu time    9.63: real time    9.82

 eigenvalue-minimisations  :   392
 total energy-change (2. order) : 0.2178385E+02  (-0.2767044E+01)
 number of electron     251.9999937 magnetization 
 augmentation part        7.7812899 magnetization 

 Broyden mixing:
  rms(total) = 0.18622E+01    rms(broyden)= 0.18622E+01
  rms(prec ) = 0.19587E+01
  weight for this iteration     100.00

 eigenvalues of (default mixing * dielectric matrix)
  average eigenvalue GAMMA=   2.0754
  2.0754

 Free energy of the ion-electron system (eV)
  ---------------------------------------------------
  alpha Z        PSCENC =        39.19705474
  Ewald energy   TEWEN  =     49057.76226428
  -1/2 Hartree   DENC   =    -56721.26482765
  -exchange  EXHF       =         0.00000000
  -V(xc)+E(xc)   XCENC  =       884.42128114
  PAW double counting   =     12953.26252787   -12999.66146460
  entropy T*S    EENTRO =        -0.18235470
  eigenvalues    EBANDS =     -3971.16650813
  atomic energy  EATOM  =     10237.57972351
  ---------------------------------------------------
  free energy    TOTEN  =      -520.05230354 eV

  energy without entropy =     -519.86994884  energy(sigma->0) =     -519.96112619


--------------------------------------------------------------------------------------------------------




----------------------------------------- Iteration    1(   7)  ---------------------------------------


    POTLOK:  cpu time    0.63: real time    0.64
    SETDIJ:  cpu time    0.01: real time    0.01
     EDDAV:  cpu time    7.93: real time    7.98
       DOS:  cpu time    0.00: real time    0.00
    CHARGE:  cpu time    0.79: real time    0.79
    MIXING:  cpu time    0.02: real time    0.05
    --------------------------------------------
      LOOP:  cpu time    9.38: real time    9.48

 eigenvalue-minimisations  :   376
 total energy-change (2. order) : 0.6465334E+01  (-0.2679492E+01)
 number of electron     251.9999940 magnetization 
 augmentation part        7.4431847 magnetization 

 Broyden mixing:
  rms(total) = 0.57367E+00    rms(broyden)= 0.57358E+00
  rms(prec ) = 0.58768E+00
  weight for this iteration     100.00

 eigenvalues of (default mixing * dielectric matrix)
  average eigenvalue GAMMA=   1.7268
  1.2182  2.2355

 Free energy of the ion-electron system (eV)
  ---------------------------------------------------
  alpha Z        PSCENC =        39.19705474
  Ewald energy   TEWEN  =     49057.76226428
  -1/2 Hartree   DENC   =    -57083.96244407
  -exchange  EXHF       =         0.00000000
  -V(xc)+E(xc)   XCENC  =       899.70102699
  PAW double counting   =     21762.17631831   -21813.02536539
  entropy T*S    EENTRO =        -0.18857339
  eigenvalues    EBANDS =     -3612.82697455
  atomic energy  EATOM  =     10237.57972351
  ---------------------------------------------------
  free energy    TOTEN  =      -513.58696957 eV

  energy without entropy =     -513.39839618  energy(sigma->0) =     -513.49268287


--------------------------------------------------------------------------------------------------------




----------------------------------------- Iteration    1(   8)  ---------------------------------------


    POTLOK:  cpu time    0.64: real time    0.64
    SETDIJ:  cpu time    0.00: real time    0.01
     EDDAV:  cpu time    8.61: real time    8.64
       DOS:  cpu time    0.00: real time    0.00
    CHARGE:  cpu time    0.78: real time    0.78
    MIXING:  cpu time    0.02: real time    0.03
    --------------------------------------------
      LOOP:  cpu time   10.06: real time   10.11

 eigenvalue-minimisations  :   416
 total energy-change (2. order) :-0.2449388E-01  (-0.1611431E+00)
 number of electron     251.9999941 magnetization 
 augmentation part        7.4312233 magnetization 

 Broyden mixing:
  rms(total) = 0.24418E+00    rms(broyden)= 0.24417E+00
  rms(prec ) = 0.25524E+00
  weight for this iteration     100.00

 eigenvalues of (default mixing * dielectric matrix)
  average eigenvalue GAMMA=   1.7040
  0.9738  2.4056  1.7326

 Free energy of the ion-electron system (eV)
  ---------------------------------------------------
  alpha Z        PSCENC =        39.19705474
  Ewald energy   TEWEN  =     49057.76226428
  -1/2 Hartree   DENC   =    -57116.35203603
  -exchange  EXHF       =         0.00000000
  -V(xc)+E(xc)   XCENC  =       900.64160408
  PAW double counting   =     23843.70514575   -23894.22984062
  entropy T*S    EENTRO =        -0.19298849
  eigenvalues    EBANDS =     -3581.72239068
  atomic energy  EATOM  =     10237.57972351
  ---------------------------------------------------
  free energy    TOTEN  =      -513.61146345 eV

  energy without entropy =     -513.41847496  energy(sigma->0) =     -513.51496920


--------------------------------------------------------------------------------------------------------




----------------------------------------- Iteration    1(   9)  ---------------------------------------


    POTLOK:  cpu time    0.64: real time    0.64
    SETDIJ:  cpu time    0.01: real time    0.01
     EDDAV:  cpu time    8.07: real time    8.11
       DOS:  cpu time    0.00: real time    0.00
    CHARGE:  cpu time    0.79: real time    0.79
    MIXING:  cpu time    0.02: real time    0.02
    --------------------------------------------
      LOOP:  cpu time    9.54: real time    9.58

 eigenvalue-minimisations  :   384
 total energy-change (2. order) : 0.3619071E-01  (-0.1128437E-01)
 number of electron     251.9999940 magnetization 
 augmentation part        7.4278890 magnetization 

 Broyden mixing:
  rms(total) = 0.54779E-01    rms(broyden)= 0.54773E-01
  rms(prec ) = 0.70988E-01
  weight for this iteration     100.00

 eigenvalues of (default mixing * dielectric matrix)
  average eigenvalue GAMMA=   1.5816
  2.3422  1.9789  1.1285  0.8767

 Free energy of the ion-electron system (eV)
  ---------------------------------------------------
  alpha Z        PSCENC =        39.19705474
  Ewald energy   TEWEN  =     49057.76226428
  -1/2 Hartree   DENC   =    -57142.51337124
  -exchange  EXHF       =         0.00000000
  -V(xc)+E(xc)   XCENC  =       901.03093133
  PAW double counting   =     24919.28822069   -24969.39958831
  entropy T*S    EENTRO =        -0.18325907
  eigenvalues    EBANDS =     -3556.33724866
  atomic energy  EATOM  =     10237.57972351
  ---------------------------------------------------
  free energy    TOTEN  =      -513.57527274 eV

  energy without entropy =     -513.39201366  energy(sigma->0) =     -513.48364320


--------------------------------------------------------------------------------------------------------




----------------------------------------- Iteration    1(  10)  ---------------------------------------


    POTLOK:  cpu time    0.64: real time    0.65
    SETDIJ:  cpu time    0.01: real time    0.01
     EDDAV:  cpu time    8.19: real time    8.22
       DOS:  cpu time    0.00: real time    0.00
    CHARGE:  cpu time    0.78: real time    0.79
    MIXING:  cpu time    0.02: real time    0.02
    --------------------------------------------
      LOOP:  cpu time    9.64: real time    9.70

 eigenvalue-minimisations  :   392
 total energy-change (2. order) : 0.2669211E-02  (-0.2138777E-02)
 number of electron     251.9999940 magnetization 
 augmentation part        7.4293152 magnetization 

 Broyden mixing:
  rms(total) = 0.23911E-01    rms(broyden)= 0.23909E-01
  rms(prec ) = 0.41771E-01
  weight for this iteration     100.00

 eigenvalues of (default mixing * dielectric matrix)
  average eigenvalue GAMMA=   1.5431
  2.2221  2.2221  1.2007  1.2007  0.8697

 Free energy of the ion-electron system (eV)
  ---------------------------------------------------
  alpha Z        PSCENC =        39.19705474
  Ewald energy   TEWEN  =     49057.76226428
  -1/2 Hartree   DENC   =    -57156.28426469
  -exchange  EXHF       =         0.00000000
  -V(xc)+E(xc)   XCENC  =       901.08807190
  PAW double counting   =     24985.27918484   -25035.26502685
  entropy T*S    EENTRO =        -0.18629439
  eigenvalues    EBANDS =     -3542.74331686
  atomic energy  EATOM  =     10237.57972351
  ---------------------------------------------------
  free energy    TOTEN  =      -513.57260352 eV

  energy without entropy =     -513.38630913  energy(sigma->0) =     -513.47945633


--------------------------------------------------------------------------------------------------------




----------------------------------------- Iteration    1(  11)  ---------------------------------------


    POTLOK:  cpu time    0.65: real time    0.65
    SETDIJ:  cpu time    0.01: real time    0.01
     EDDAV:  cpu time    7.79: real time    7.81
       DOS:  cpu time    0.00: real time    0.00
    CHARGE:  cpu time    0.79: real time    0.79
    MIXING:  cpu time    0.02: real time    0.02
    --------------------------------------------
      LOOP:  cpu time    9.26: real time    9.30

 eigenvalue-minimisations  :   368
 total energy-change (2. order) : 0.7402913E-04  (-0.6742030E-03)
 number of electron     251.9999941 magnetization 
 augmentation part        7.4300989 magnetization 

 Broyden mixing:
  rms(total) = 0.14541E-01    rms(broyden)= 0.14540E-01
  rms(prec ) = 0.29404E-01
  weight for this iteration     100.00

 eigenvalues of (default mixing * dielectric matrix)
  average eigenvalue GAMMA=   1.5367
  2.2974  2.2974  0.9415  0.9415  1.3910  1.3515

 Free energy of the ion-electron system (eV)
  ---------------------------------------------------
  alpha Z        PSCENC =        39.19705474
  Ewald energy   TEWEN  =     49057.76226428
  -1/2 Hartree   DENC   =    -57172.64888123
  -exchange  EXHF       =         0.00000000
  -V(xc)+E(xc)   XCENC  =       901.23270523
  PAW double counting   =     24973.60619748   -25023.55029146
  entropy T*S    EENTRO =        -0.18757146
  eigenvalues    EBANDS =     -3526.56373058
  atomic energy  EATOM  =     10237.57972351
  ---------------------------------------------------
  free energy    TOTEN  =      -513.57252949 eV

  energy without entropy =     -513.38495804  energy(sigma->0) =     -513.47874377


--------------------------------------------------------------------------------------------------------




----------------------------------------- Iteration    1(  12)  ---------------------------------------


    POTLOK:  cpu time    0.65: real time    0.65
    SETDIJ:  cpu time    0.00: real time    0.01
     EDDAV:  cpu time    7.66: real time    7.69
       DOS:  cpu time    0.00: real time    0.00
    CHARGE:  cpu time    0.79: real time    0.79
    MIXING:  cpu time    0.02: real time    0.02
    --------------------------------------------
      LOOP:  cpu time    9.13: real time    9.18

 eigenvalue-minimisations  :   360
 total energy-change (2. order) :-0.3552207E-02  (-0.3765845E-03)
 number of electron     251.9999941 magnetization 
 augmentation part        7.4268761 magnetization 

 Broyden mixing:
  rms(total) = 0.80126E-02    rms(broyden)= 0.80116E-02
  rms(prec ) = 0.18969E-01
  weight for this iteration     100.00

 eigenvalues of (default mixing * dielectric matrix)
  average eigenvalue GAMMA=   1.7019
  3.3049  2.5239  1.8373  0.9275  1.0641  1.1280  1.1280

 Free energy of the ion-electron system (eV)
  ---------------------------------------------------
  alpha Z        PSCENC =        39.19705474
  Ewald energy   TEWEN  =     49057.76226428
  -1/2 Hartree   DENC   =    -57190.90917960
  -exchange  EXHF       =         0.00000000
  -V(xc)+E(xc)   XCENC  =       901.42185824
  PAW double counting   =     24940.28166738   -24990.21909558
  entropy T*S    EENTRO =        -0.18669377
  eigenvalues    EBANDS =     -3508.50368090
  atomic energy  EATOM  =     10237.57972351
  ---------------------------------------------------
  free energy    TOTEN  =      -513.57608170 eV

  energy without entropy =     -513.38938794  energy(sigma->0) =     -513.48273482


--------------------------------------------------------------------------------------------------------




----------------------------------------- Iteration    1(  13)  ---------------------------------------


    POTLOK:  cpu time    0.65: real time    0.66
    SETDIJ:  cpu time    0.01: real time    0.01
     EDDAV:  cpu time    7.39: real time    7.42
       DOS:  cpu time    0.00: real time    0.00
    CHARGE:  cpu time    0.80: real time    0.80
    MIXING:  cpu time    0.02: real time    0.02
    --------------------------------------------
      LOOP:  cpu time    8.87: real time    8.92

 eigenvalue-minimisations  :   344
 total energy-change (2. order) :-0.6448132E-02  (-0.4427142E-03)
 number of electron     251.9999941 magnetization 
 augmentation part        7.4245816 magnetization 

 Broyden mixing:
  rms(total) = 0.55045E-02    rms(broyden)= 0.55032E-02
  rms(prec ) = 0.10340E-01
  weight for this iteration     100.00

 eigenvalues of (default mixing * dielectric matrix)
  average eigenvalue GAMMA=   1.8107
  4.0834  2.4220  1.9160  1.9160  0.9561  0.9561  1.1178  1.1178

 Free energy of the ion-electron system (eV)
  ---------------------------------------------------
  alpha Z        PSCENC =        39.19705474
  Ewald energy   TEWEN  =     49057.76226428
  -1/2 Hartree   DENC   =    -57212.20863150
  -exchange  EXHF       =         0.00000000
  -V(xc)+E(xc)   XCENC  =       901.60649301
  PAW double counting   =     24921.25066239   -24971.17210312
  entropy T*S    EENTRO =        -0.18689563
  eigenvalues    EBANDS =     -3487.41109752
  atomic energy  EATOM  =     10237.57972351
  ---------------------------------------------------
  free energy    TOTEN  =      -513.58252983 eV

  energy without entropy =     -513.39563420  energy(sigma->0) =     -513.48908202


--------------------------------------------------------------------------------------------------------




----------------------------------------- Iteration    1(  14)  ---------------------------------------


    POTLOK:  cpu time    0.65: real time    0.66
    SETDIJ:  cpu time    0.00: real time    0.01
     EDDAV:  cpu time    6.74: real time    6.77
       DOS:  cpu time    0.00: real time    0.00
    CHARGE:  cpu time    0.78: real time    0.78
    MIXING:  cpu time    0.02: real time    0.03
    --------------------------------------------
      LOOP:  cpu time    8.21: real time    8.25

 eigenvalue-minimisations  :   304
 total energy-change (2. order) :-0.5781428E-02  (-0.1363782E-03)
 number of electron     251.9999941 magnetization 
 augmentation part        7.4237785 magnetization 

 Broyden mixing:
  rms(total) = 0.26673E-02    rms(broyden)= 0.26666E-02
  rms(prec ) = 0.52339E-02
  weight for this iteration     100.00

 eigenvalues of (default mixing * dielectric matrix)
  average eigenvalue GAMMA=   1.9298
  5.2882  2.4808  2.4808  1.8997  1.1203  1.1203  1.0766  0.9505  0.9505

 Free energy of the ion-electron system (eV)
  ---------------------------------------------------
  alpha Z        PSCENC =        39.19705474
  Ewald energy   TEWEN  =     49057.76226428
  -1/2 Hartree   DENC   =    -57222.37004172
  -exchange  EXHF       =         0.00000000
  -V(xc)+E(xc)   XCENC  =       901.64032435
  PAW double counting   =     24922.92095840   -24972.84381500
  entropy T*S    EENTRO =        -0.18686849
  eigenvalues    EBANDS =     -3477.28791134
  atomic energy  EATOM  =     10237.57972351
  ---------------------------------------------------
  free energy    TOTEN  =      -513.58831126 eV

  energy without entropy =     -513.40144278  energy(sigma->0) =     -513.49487702


--------------------------------------------------------------------------------------------------------




----------------------------------------- Iteration    1(  15)  ---------------------------------------


    POTLOK:  cpu time    0.65: real time    0.65
    SETDIJ:  cpu time    0.01: real time    0.01
     EDDAV:  cpu time    7.14: real time    7.17
       DOS:  cpu time    0.00: real time    0.00
    CHARGE:  cpu time    0.79: real time    0.79
    MIXING:  cpu time    0.03: real time    0.03
    --------------------------------------------
      LOOP:  cpu time    8.62: real time    8.66

 eigenvalue-minimisations  :   328
 total energy-change (2. order) :-0.4216306E-02  (-0.3412097E-04)
 number of electron     251.9999941 magnetization 
 augmentation part        7.4235733 magnetization 

 Broyden mixing:
  rms(total) = 0.16801E-02    rms(broyden)= 0.16799E-02
  rms(prec ) = 0.31121E-02
  weight for this iteration     100.00

 eigenvalues of (default mixing * dielectric matrix)
  average eigenvalue GAMMA=   2.0140
  6.1991  2.9738  2.3941  1.9624  1.4470  1.1187  1.1187  0.9292  0.9292  1.0677

 Free energy of the ion-electron system (eV)
  ---------------------------------------------------
  alpha Z        PSCENC =        39.19705474
  Ewald energy   TEWEN  =     49057.76226428
  -1/2 Hartree   DENC   =    -57226.17557020
  -exchange  EXHF       =         0.00000000
  -V(xc)+E(xc)   XCENC  =       901.63478495
  PAW double counting   =     24919.86146349   -24969.78453573
  entropy T*S    EENTRO =        -0.18690497
  eigenvalues    EBANDS =     -3473.48080762
  atomic energy  EATOM  =     10237.57972351
  ---------------------------------------------------
  free energy    TOTEN  =      -513.59252757 eV

  energy without entropy =     -513.40562259  energy(sigma->0) =     -513.49907508


--------------------------------------------------------------------------------------------------------




----------------------------------------- Iteration    1(  16)  ---------------------------------------


    POTLOK:  cpu time    0.65: real time    0.65
    SETDIJ:  cpu time    0.00: real time    0.01
     EDDAV:  cpu time    6.74: real time    6.77
       DOS:  cpu time    0.00: real time    0.00
    CHARGE:  cpu time    0.78: real time    0.79
    MIXING:  cpu time    0.03: real time    0.03
    --------------------------------------------
      LOOP:  cpu time    8.21: real time    8.26

 eigenvalue-minimisations  :   304
 total energy-change (2. order) :-0.4049095E-02  (-0.2747600E-04)
 number of electron     251.9999941 magnetization 
 augmentation part        7.4235449 magnetization 

 Broyden mixing:
  rms(total) = 0.10212E-02    rms(broyden)= 0.10212E-02
  rms(prec ) = 0.18013E-02
  weight for this iteration     100.00

 eigenvalues of (default mixing * dielectric matrix)
  average eigenvalue GAMMA=   2.0808
  6.9877  3.3665  2.3239  2.1846  1.8541  1.1219  1.1219  1.1385  0.9490  0.9490
  0.8922

 Free energy of the ion-electron system (eV)
  ---------------------------------------------------
  alpha Z        PSCENC =        39.19705474
  Ewald energy   TEWEN  =     49057.76226428
  -1/2 Hartree   DENC   =    -57227.63100530
  -exchange  EXHF       =         0.00000000
  -V(xc)+E(xc)   XCENC  =       901.62018315
  PAW double counting   =     24920.28515886   -24970.20697426
  entropy T*S    EENTRO =        -0.18693647
  eigenvalues    EBANDS =     -3472.01604518
  atomic energy  EATOM  =     10237.57972351
  ---------------------------------------------------
  free energy    TOTEN  =      -513.59657666 eV

  energy without entropy =     -513.40964020  energy(sigma->0) =     -513.50310843


--------------------------------------------------------------------------------------------------------




----------------------------------------- Iteration    1(  17)  ---------------------------------------


    POTLOK:  cpu time    0.65: real time    0.65
    SETDIJ:  cpu time    0.01: real time    0.01
     EDDAV:  cpu time    6.34: real time    6.37
       DOS:  cpu time    0.00: real time    0.00
    CHARGE:  cpu time    0.79: real time    0.79
    MIXING:  cpu time    0.03: real time    0.03
    --------------------------------------------
      LOOP:  cpu time    7.81: real time    7.86

 eigenvalue-minimisations  :   280
 total energy-change (2. order) :-0.2211602E-02  (-0.1277686E-04)
 number of electron     251.9999941 magnetization 
 augmentation part        7.4235135 magnetization 

 Broyden mixing:
  rms(total) = 0.60913E-03    rms(broyden)= 0.60910E-03
  rms(prec ) = 0.11241E-02
  weight for this iteration     100.00

 eigenvalues of (default mixing * dielectric matrix)
  average eigenvalue GAMMA=   2.1515
  7.6201  3.8373  2.5052  2.5052  1.9265  1.1159  1.1159  1.2170  1.2170  0.9263
  0.9263  0.9049

 Free energy of the ion-electron system (eV)
  ---------------------------------------------------
  alpha Z        PSCENC =        39.19705474
  Ewald energy   TEWEN  =     49057.76226428
  -1/2 Hartree   DENC   =    -57228.07774355
  -exchange  EXHF       =         0.00000000
  -V(xc)+E(xc)   XCENC  =       901.61542708
  PAW double counting   =     24920.89950431   -24970.82089318
  entropy T*S    EENTRO =        -0.18698736
  eigenvalues    EBANDS =     -3471.56713809
  atomic energy  EATOM  =     10237.57972351
  ---------------------------------------------------
  free energy    TOTEN  =      -513.59878826 eV

  energy without entropy =     -513.41180090  energy(sigma->0) =     -513.50529458


--------------------------------------------------------------------------------------------------------




----------------------------------------- Iteration    1(  18)  ---------------------------------------


    POTLOK:  cpu time    0.65: real time    0.65
    SETDIJ:  cpu time    0.01: real time    0.01
     EDDAV:  cpu time    6.22: real time    6.24
       DOS:  cpu time    0.00: real time    0.00
    CHARGE:  cpu time    0.78: real time    0.78
    MIXING:  cpu time    0.03: real time    0.03
    --------------------------------------------
      LOOP:  cpu time    7.68: real time    7.73

 eigenvalue-minimisations  :   272
 total energy-change (2. order) :-0.1471026E-02  (-0.1112347E-04)
 number of electron     251.9999941 magnetization 
 augmentation part        7.4234984 magnetization 

 Broyden mixing:
  rms(total) = 0.36163E-03    rms(broyden)= 0.36158E-03
  rms(prec ) = 0.61407E-03
  weight for this iteration     100.00

 eigenvalues of (default mixing * dielectric matrix)
  average eigenvalue GAMMA=   2.1809
  7.8249  4.3973  2.6632  2.4814  1.8179  1.8179  1.1234  1.1234  1.1875  1.1875
  0.9285  0.9285  0.8706

 Free energy of the ion-electron system (eV)
  ---------------------------------------------------
  alpha Z        PSCENC =        39.19705474
  Ewald energy   TEWEN  =     49057.76226428
  -1/2 Hartree   DENC   =    -57228.28422343
  -exchange  EXHF       =         0.00000000
  -V(xc)+E(xc)   XCENC  =       901.61435036
  PAW double counting   =     24920.24703885   -24970.16824665
  entropy T*S    EENTRO =        -0.18700112
  eigenvalues    EBANDS =     -3471.36121983
  atomic energy  EATOM  =     10237.57972351
  ---------------------------------------------------
  free energy    TOTEN  =      -513.60025929 eV

  energy without entropy =     -513.41325817  energy(sigma->0) =     -513.50675873


--------------------------------------------------------------------------------------------------------




----------------------------------------- Iteration    1(  19)  ---------------------------------------


    POTLOK:  cpu time    0.65: real time    0.65
    SETDIJ:  cpu time    0.01: real time    0.01
     EDDAV:  cpu time    5.70: real time    5.73
       DOS:  cpu time    0.00: real time    0.00
    CHARGE:  cpu time    0.78: real time    0.79
    MIXING:  cpu time    0.03: real time    0.03
    --------------------------------------------
      LOOP:  cpu time    7.18: real time    7.22

 eigenvalue-minimisations  :   240
 total energy-change (2. order) :-0.4920937E-03  (-0.2829890E-05)
 number of electron     251.9999941 magnetization 
 augmentation part        7.4234943 magnetization 

 Broyden mixing:
  rms(total) = 0.21088E-03    rms(broyden)= 0.21086E-03
  rms(prec ) = 0.33142E-03
  weight for this iteration     100.00

 eigenvalues of (default mixing * dielectric matrix)
  average eigenvalue GAMMA=   2.2393
  8.1455  4.9756  3.0985  2.3747  2.3747  1.8788  1.1343  1.1343  1.2068  1.2068
  1.0687  0.9307  0.9307  0.8905

 Free energy of the ion-electron system (eV)
  ---------------------------------------------------
  alpha Z        PSCENC =        39.19705474
  Ewald energy   TEWEN  =     49057.76226428
  -1/2 Hartree   DENC   =    -57228.34053079
  -exchange  EXHF       =         0.00000000
  -V(xc)+E(xc)   XCENC  =       901.61381886
  PAW double counting   =     24920.49478781   -24970.41594538
  entropy T*S    EENTRO =        -0.18698152
  eigenvalues    EBANDS =     -3471.30494290
  atomic energy  EATOM  =     10237.57972351
  ---------------------------------------------------
  free energy    TOTEN  =      -513.60075138 eV

  energy without entropy =     -513.41376986  energy(sigma->0) =     -513.50726062


--------------------------------------------------------------------------------------------------------




----------------------------------------- Iteration    1(  20)  ---------------------------------------


    POTLOK:  cpu time    0.65: real time    0.66
    SETDIJ:  cpu time    0.01: real time    0.01
     EDDAV:  cpu time    5.28: real time    5.39
       DOS:  cpu time    0.00: real time    0.00
    CHARGE:  cpu time    0.78: real time    0.78
    MIXING:  cpu time    0.03: real time    0.03
    --------------------------------------------
      LOOP:  cpu time    6.76: real time    6.89

 eigenvalue-minimisations  :   208
 total energy-change (2. order) :-0.1876939E-03  (-0.2354984E-05)
 number of electron     251.9999941 magnetization 
 augmentation part        7.4234777 magnetization 

 Broyden mixing:
  rms(total) = 0.10857E-03    rms(broyden)= 0.10855E-03
  rms(prec ) = 0.16244E-03
  weight for this iteration     100.00

 eigenvalues of (default mixing * dielectric matrix)
  average eigenvalue GAMMA=   2.3027
  8.2572  5.9858  3.4182  2.5305  2.3371  1.8281  1.8281  1.1336  1.1336  1.1952
  1.1952  0.9365  0.9365  0.9123  0.9123

 Free energy of the ion-electron system (eV)
  ---------------------------------------------------
  alpha Z        PSCENC =        39.19705474
  Ewald energy   TEWEN  =     49057.76226428
  -1/2 Hartree   DENC   =    -57228.37898510
  -exchange  EXHF       =         0.00000000
  -V(xc)+E(xc)   XCENC  =       901.61408581
  PAW double counting   =     24919.94271612   -24969.86409211
  entropy T*S    EENTRO =        -0.18697959
  eigenvalues    EBANDS =     -3471.26672673
  atomic energy  EATOM  =     10237.57972351
  ---------------------------------------------------
  free energy    TOTEN  =      -513.60093908 eV

  energy without entropy =     -513.41395949  energy(sigma->0) =     -513.50744928


--------------------------------------------------------------------------------------------------------




----------------------------------------- Iteration    1(  21)  ---------------------------------------


    POTLOK:  cpu time    0.65: real time    0.65
    SETDIJ:  cpu time    0.01: real time    0.01
     EDDAV:  cpu time    5.70: real time    5.72
       DOS:  cpu time    0.00: real time    0.00
    --------------------------------------------
      LOOP:  cpu time    6.36: real time    6.39

 eigenvalue-minimisations  :   240
 total energy-change (2. order) :-0.5623581E-04  (-0.6065397E-06)
 number of electron     251.9999941 magnetization 
 augmentation part        7.4234777 magnetization 

 Free energy of the ion-electron system (eV)
  ---------------------------------------------------
  alpha Z        PSCENC =        39.19705474
  Ewald energy   TEWEN  =     49057.76226428
  -1/2 Hartree   DENC   =    -57228.36148831
  -exchange  EXHF       =         0.00000000
  -V(xc)+E(xc)   XCENC  =       901.61336251
  PAW double counting   =     24919.82127787   -24969.74267901
  entropy T*S    EENTRO =        -0.18698714
  eigenvalues    EBANDS =     -3471.28352376
  atomic energy  EATOM  =     10237.57972351
  ---------------------------------------------------
  free energy    TOTEN  =      -513.60099531 eV

  energy without entropy =     -513.41400817  energy(sigma->0) =     -513.50750174


--------------------------------------------------------------------------------------------------------




 average (electrostatic) potential at core
  the test charge radii are     0.7089  0.6991
  (the norm of the test charge is              1.0000)
       1 -75.3658       2 -75.5287       3 -75.5291       4 -75.5279       5 -75.3650
       6 -75.3655       7 -75.3655       8 -75.3650       9 -75.5279      10 -75.5291
      11 -75.5287      12 -75.3658      13 -60.3786      14 -60.2696      15 -60.3015
      16 -60.2285      17 -59.5780      18 -60.3779      19 -60.2933      20 -60.2857
      21 -60.2853      22 -60.3008      23 -59.5866      24 -60.2701      25 -59.5784
      26 -59.5776      27 -59.5874      28 -60.2847      29 -60.2282      30 -60.2926
      31 -60.3777      32 -60.2931      33 -60.2698      34 -60.3018      35 -60.2274
      36 -59.5864      37 -60.2274      38 -59.5864      39 -60.2931      40 -60.3018
      41 -60.2698      42 -60.3777      43 -60.2926      44 -59.5874      45 -60.2282
      46 -59.5784      47 -60.2847      48 -59.5776      49 -60.2701      50 -59.5866
      51 -60.2933      52 -60.3008      53 -60.2853      54 -60.3779      55 -60.2857
      56 -59.5780      57 -60.2696      58 -60.2285      59 -60.3015      60 -60.3786
 
 
 
 E-fermi :  -3.1364     XC(G=0):  -1.0119     alpha+bet : -0.7317


 k-point   1 :       0.0000    0.0000    0.0000
  band No.  band energies     occupation 
      1     -26.0677      2.00000
      2     -25.7727      2.00000
      3     -25.7719      2.00000
      4     -25.3250      2.00000
      5     -25.2053      2.00000
      6     -25.2038      2.00000
      7     -24.6663      2.00000
      8     -24.6653      2.00000
      9     -24.6128      2.00000
     10     -24.5413      2.00000
     11     -24.3961      2.00000
     12     -24.3943      2.00000
     13     -21.9402      2.00000
     14     -21.4835      2.00000
     15     -21.4814      2.00000
     16     -21.4720      2.00000
     17     -21.3696      2.00000
     18     -21.3681      2.00000
     19     -21.2998      2.00000
     20     -20.5674      2.00000
     21     -20.5662      2.00000
     22     -19.9970      2.00000
     23     -19.8304      2.00000
     24     -19.6342      2.00000
     25     -19.6334      2.00000
     26     -19.5092      2.00000
     27     -19.3749      2.00000
     28     -19.3738      2.00000
     29     -18.5775      2.00000
     30     -18.5769      2.00000
     31     -17.9971      2.00000
     32     -17.9321      2.00000
     33     -17.9311      2.00000
     34     -17.7385      2.00000
     35     -17.1883      2.00000
     36     -17.1864      2.00000
     37     -17.0734      2.00000
     38     -16.8600      2.00000
     39     -16.8592      2.00000
     40     -16.5255      2.00000
     41     -15.9836      2.00000
     42     -15.9828      2.00000
     43     -15.8847      2.00000
     44     -15.8832      2.00000
     45     -15.3478      2.00000
     46     -14.8542      2.00000
     47     -14.6642      2.00000
     48     -14.6631      2.00000
     49     -14.5007      2.00000
     50     -14.4992      2.00000
     51     -14.4059      2.00000
     52     -14.3717      2.00000
     53     -14.0543      2.00000
     54     -14.0531      2.00000
     55     -13.4031      2.00000
     56     -13.4016      2.00000
     57     -13.0813      2.00000
     58     -13.0535      2.00000
     59     -13.0512      2.00000
     60     -12.8758      2.00000
     61     -12.5198      2.00000
     62     -12.5171      2.00000
     63     -12.3449      2.00000
     64     -12.2148      2.00000
     65     -12.2125      2.00000
     66     -12.1716      2.00000
     67     -11.9547      2.00000
     68     -11.8642      2.00000
     69     -11.8617      2.00000
     70     -11.8611      2.00000
     71     -11.8490      2.00000
     72     -11.8483      2.00000
     73     -11.5899      2.00000
     74     -11.5113      2.00000
     75     -11.3679      2.00000
     76     -11.3667      2.00000
     77     -11.2655      2.00000
     78     -10.9875      2.00000
     79     -10.9654      2.00000
     80     -10.9642      2.00000
     81     -10.8315      2.00000
     82     -10.8291      2.00000
     83     -10.7987      2.00000
     84     -10.5952      2.00000
     85     -10.5794      2.00000
     86     -10.5781      2.00000
     87     -10.5605      2.00000
     88     -10.5602      2.00000
     89     -10.0475      2.00000
     90      -9.8437      2.00000
     91      -9.8032      2.00000
     92      -9.8019      2.00000
     93      -9.6258      2.00000
     94      -9.6232      2.00000
     95      -9.5429      2.00000
     96      -9.3642      2.00000
     97      -9.2856      2.00000
     98      -9.2837      2.00000
     99      -9.1896      2.00000
    100      -9.1887      2.00000
    101      -8.9687      2.00000
    102      -8.9665      2.00000
    103      -8.8711      2.00000
    104      -8.5577      2.00000
    105      -8.5559      2.00000
    106      -8.4419      2.00000
    107      -8.0048      2.00000
    108      -7.8986      2.00000
    109      -7.8974      2.00000
    110      -7.2325      2.00000
    111      -7.2311      2.00000
    112      -6.8524      2.00000
    113      -6.7616      2.00000
    114      -6.7363      2.00000
    115      -6.7215      2.00000
    116      -6.7205      2.00000
    117      -6.2401      2.00000
    118      -6.2385      2.00000
    119      -5.7024      2.00000
    120      -5.7014      2.00000
    121      -4.6243      2.00000
    122      -4.6234      2.00000
    123      -4.2957      2.00000
    124      -4.0792      2.00000
    125      -3.3127      1.78750
    126      -3.3116      1.78456
    127      -3.0241      0.42721
    128      -2.6329      0.00037
    129      -2.6318      0.00036
    130      -2.4179      0.00000
    131      -2.4146      0.00000
    132      -2.1936      0.00000
    133      -2.0245      0.00000
    134      -2.0214      0.00000
    135      -1.1976      0.00000
    136      -1.1964      0.00000
    137      -0.8816      0.00000
    138      -0.8796      0.00000
    139      -0.8385      0.00000
    140      -0.7089      0.00000
    141      -0.6007      0.00000
    142      -0.5813      0.00000
    143      -0.5793      0.00000
    144      -0.5520      0.00000
    145      -0.3867      0.00000
    146      -0.1561      0.00000
    147       0.0194      0.00000
    148       0.0212      0.00000
    149       0.1370      0.00000
    150       0.1399      0.00000
    151       0.2617      0.00000
    152       0.2625      0.00000
    153       0.3197      0.00000
    154       0.5202      0.00000
    155       0.5840      0.00000
    156       0.6028      0.00000
    157       0.6741      0.00000
    158       0.7182      0.00000
    159       0.7454      0.00000
    160       0.7681      0.00000


--------------------------------------------------------------------------------------------------------


 soft charge-density along one line, spin component           1
         0         1         2         3         4         5         6         7         8         9
 total charge-density along one line
 
 pseudopotential strength for first ion, spin component:           1
 14.151  16.997   0.003   0.001  -0.001   0.007   0.004  -0.003
 16.997  20.417   0.003   0.002  -0.001   0.009   0.005  -0.004
  0.003   0.003  -7.473   0.021  -0.030 -10.395   0.033  -0.046
  0.001   0.002   0.021  -7.477  -0.017   0.033 -10.400  -0.026
 -0.001  -0.001  -0.030  -0.017  -7.480  -0.046  -0.026 -10.405
  0.007   0.009 -10.395   0.033  -0.046 -13.812   0.051  -0.072
  0.004   0.005   0.033 -10.400  -0.026   0.051 -13.821  -0.040
 -0.003  -0.004  -0.046  -0.026 -10.405  -0.072  -0.040 -13.828
 total augmentation occupancy for first ion, spin component:           1
  7.313  -3.445  -0.460  -0.302   0.272   0.143   0.099  -0.093
 -3.445   1.772   0.356   0.239  -0.222  -0.087  -0.063   0.062
 -0.460   0.356   2.560  -0.148   0.238  -0.499   0.109  -0.153
 -0.302   0.239  -0.148   2.519   0.106   0.109  -0.510  -0.085
  0.272  -0.222   0.238   0.106   2.597  -0.153  -0.085  -0.532
  0.143  -0.087  -0.499   0.109  -0.153   0.119  -0.032   0.046
  0.099  -0.063   0.109  -0.510  -0.085  -0.032   0.121   0.024
 -0.093   0.062  -0.153  -0.085  -0.532   0.046   0.024   0.131


------------------------ aborting loop because EDIFF is reached ----------------------------------------


    CHARGE:  cpu time    0.79: real time    0.80
    FORLOC:  cpu time    0.16: real time    0.19
    FORNL :  cpu time    1.76: real time    1.78
    STRESS:  cpu time    5.32: real time    5.42
    FORCOR:  cpu time    0.81: real time    0.85
    FORHAR:  cpu time    0.33: real time    0.33
    MIXING:  cpu time    0.04: real time    0.04

  FORCE on cell =-STRESS in cart. coord.  units (eV):
  Direction    XX          YY          ZZ          XY          YZ          ZX
  --------------------------------------------------------------------------------------
  Alpha Z    39.19705    39.19705    39.19705
  Ewald   16419.54095 16350.15964 16288.02785   -14.37322   -57.85964   -19.88194
  Hartree 19152.24785 19073.74682 19002.40410   -17.79617   -72.54335   -24.62430
  E(xc)    -974.20389  -974.17625  -974.14671     0.00934     0.04074     0.01247
  Local  -38517.22560-38363.18285-38223.65693    34.39230   139.77016    47.55065
  n-local  -336.57738  -334.94151  -333.38318     0.55941     2.36873     0.78582
  augment    -4.59897    -4.88046    -5.12700    -0.09635    -0.41381    -0.13207
  Kinetic  4187.37210  4181.50055  4175.39449    -2.12493    -8.94948    -2.80904
  Fock        0.00000     0.00000     0.00000     0.00000     0.00000     0.00000
  -------------------------------------------------------------------------------------
  Total     -34.24789   -32.57700   -31.29035     0.57039     2.41333     0.90160
  in kB      -6.85890    -6.52427    -6.26659     0.11423     0.48332     0.18056
  external pressure =       -6.55 kB  Pullay stress =        0.00 kB


 VOLUME and BASIS-vectors are now :
 -----------------------------------------------------------------------------
  energy-cutoff  :      520.00
  volume of cell :     8000.00
      direct lattice vectors                 reciprocal lattice vectors
    20.000000000  0.000000000  0.000000000     0.050000000  0.000000000  0.000000000
     0.000000000 20.000000000  0.000000000     0.000000000  0.050000000  0.000000000
     0.000000000  0.000000000 20.000000000     0.000000000  0.000000000  0.050000000

  length of vectors
    20.000000000 20.000000000 20.000000000     0.050000000  0.050000000  0.050000000


 FORCES acting on ions
    electron-ion (+dipol)            ewald-force                    non-local-force                 convergence-correction
 -----------------------------------------------------------------------------------------------
   0.323E+03 -.364E+03 -.301E+03   -.327E+03 0.372E+03 0.306E+03   0.502E+01 -.664E+01 -.479E+01   0.561E-04 -.208E-03 -.246E-03
   0.518E+03 -.223E+03 0.893E+02   -.525E+03 0.228E+03 -.926E+02   0.802E+01 -.343E+01 0.170E+01   0.930E-04 -.211E-03 0.109E-03
   0.445E+03 0.199E+03 -.300E+03   -.453E+03 -.200E+03 0.305E+03   0.696E+01 0.277E+01 -.475E+01   0.219E-03 0.302E-04 -.168E-03
   0.518E+02 -.487E+03 0.294E+03   -.506E+02 0.496E+03 -.298E+03   0.538E+00 -.769E+01 0.438E+01   0.201E-04 -.186E-03 0.184E-03
   0.171E+03 -.117E+03 0.530E+03   -.172E+03 0.118E+03 -.540E+03   0.223E+01 -.173E+01 0.917E+01   0.716E-04 0.832E-04 -.805E-05
   0.370E+03 0.424E+03 0.928E+02   -.378E+03 -.430E+03 -.965E+02   0.651E+01 0.668E+01 0.200E+01   0.956E-04 0.732E-04 0.251E-03
   -.370E+03 -.424E+03 -.928E+02   0.378E+03 0.430E+03 0.965E+02   -.651E+01 -.668E+01 -.200E+01   -.956E-04 -.732E-04 -.251E-03
   -.171E+03 0.117E+03 -.530E+03   0.172E+03 -.118E+03 0.540E+03   -.223E+01 0.173E+01 -.917E+01   -.716E-04 -.832E-04 0.805E-05
   -.518E+02 0.487E+03 -.294E+03   0.506E+02 -.496E+03 0.298E+03   -.538E+00 0.769E+01 -.438E+01   -.201E-04 0.186E-03 -.184E-03
   -.445E+03 -.199E+03 0.300E+03   0.453E+03 0.200E+03 -.305E+03   -.696E+01 -.277E+01 0.475E+01   -.219E-03 -.302E-04 0.168E-03
   -.518E+03 0.223E+03 -.893E+02   0.525E+03 -.228E+03 0.926E+02   -.802E+01 0.343E+01 -.170E+01   -.930E-04 0.211E-03 -.109E-03
   -.323E+03 0.364E+03 0.301E+03   0.327E+03 -.372E+03 -.306E+03   -.502E+01 0.664E+01 0.479E+01   -.561E-04 0.208E-03 0.246E-03
   0.452E+03 -.915E+02 -.829E+02   -.453E+03 0.887E+02 0.878E+02   0.167E+01 0.181E+01 -.368E+01   -.570E-04 -.760E-04 -.109E-04
   0.372E+03 -.151E+03 -.247E+03   -.375E+03 0.146E+03 0.247E+03   0.305E+01 0.278E+01 -.842E+00   0.296E-04 -.140E-03 -.121E-03
   0.296E+03 -.359E+03 0.717E+02   -.294E+03 0.362E+03 -.727E+02   -.237E+01 -.455E+01 -.371E+00   0.133E-03 -.251E-04 0.136E-04
   0.228E+03 -.406E+03 -.598E+02   -.226E+03 0.409E+03 0.575E+02   -.654E+00 -.379E+01 0.378E+01   0.868E-04 0.123E-05 -.111E-03
   0.404E+02 -.458E+03 -.746E+02   -.413E+02 0.458E+03 0.758E+02   -.981E+00 -.116E+01 -.477E+00   0.428E-04 0.901E-04 -.155E-03
   0.216E+03 -.344E+03 0.241E+03   -.221E+03 0.341E+03 -.241E+03   0.436E+01 0.497E+00 0.580E+00   0.915E-04 -.122E-03 0.469E-04
   0.788E+02 -.296E+03 -.356E+03   -.745E+02 0.297E+03 0.358E+03   -.416E+01 -.123E+00 -.328E+01   0.796E-05 -.887E-04 -.126E-03
   0.305E+03 -.119E+02 -.358E+03   -.304E+03 0.158E+02 0.360E+03   -.170E+01 -.348E+01 -.370E+01   0.605E-04 -.620E-05 -.638E-04
   0.389E+03 -.715E+02 0.256E+03   -.387E+03 0.700E+02 -.259E+03   0.104E+00 0.338E+01 0.415E+01   0.864E-04 -.380E-04 0.195E-04
   0.455E+03 0.957E+02 -.576E+02   -.457E+03 -.938E+02 0.547E+02   0.271E+01 -.937E+00 0.427E+01   -.602E-04 0.457E-04 -.852E-04
   -.442E+02 -.395E+03 -.245E+03   0.431E+02 0.396E+03 0.246E+03   -.399E+00 -.379E+00 -.277E+00   -.247E-04 0.247E-04 -.201E-03
   0.266E+03 -.188E+03 0.340E+03   -.270E+03 0.191E+03 -.337E+03   0.343E+01 -.214E+01 -.116E+01   0.128E-03 -.911E-04 0.381E-04
   0.171E+03 -.482E+01 -.434E+03   -.170E+03 0.470E+01 0.435E+03   0.701E+00 -.108E+01 -.916E+00   0.521E-04 -.136E-03 0.111E-04
   0.388E+03 0.848E+02 0.247E+03   -.389E+03 -.863E+02 -.247E+03   0.422E+00 -.105E+00 0.153E+01   -.608E-05 0.116E-03 0.144E-03
   0.515E+02 -.167E+03 -.433E+03   -.511E+02 0.166E+03 0.433E+03   0.183E+00 -.484E+00 -.343E+00   0.366E-04 -.195E-03 0.548E-04
[...]
    159       0.7475      0.00000
    160       0.9532      0.00000


--------------------------------------------------------------------------------------------------------


 soft charge-density along one line, spin component           1
         0         1         2         3         4         5         6         7         8         9
 total charge-density along one line
 
 pseudopotential strength for first ion, spin component:           1
 14.133  16.975   0.002   0.002  -0.002   0.008   0.007  -0.008
 16.975  20.390   0.003   0.003  -0.003   0.009   0.009  -0.009
  0.002   0.003  -7.459   0.020  -0.027 -10.371   0.032  -0.041
  0.002   0.003   0.020  -7.462  -0.018   0.032 -10.375  -0.029
 -0.002  -0.003  -0.027  -0.018  -7.462  -0.041  -0.029 -10.375
  0.008   0.009 -10.371   0.032  -0.041 -13.775   0.049  -0.064
  0.007   0.009   0.032 -10.375  -0.029   0.049 -13.781  -0.044
 -0.008  -0.009  -0.041  -0.029 -10.375  -0.064  -0.044 -13.781
 total augmentation occupancy for first ion, spin component:           1
  7.455  -3.553  -0.525  -0.492   0.521   0.158   0.158  -0.172
 -3.553   1.859   0.437   0.403  -0.418  -0.100  -0.102   0.112
 -0.525   0.437   2.569  -0.134   0.179  -0.515   0.101  -0.129
 -0.492   0.403  -0.134   2.588   0.107   0.100  -0.530  -0.090
  0.521  -0.418   0.179   0.107   2.616  -0.128  -0.090  -0.531
  0.158  -0.100  -0.515   0.100  -0.128   0.123  -0.030   0.039
  0.158  -0.102   0.101  -0.530  -0.090  -0.030   0.127   0.026
 -0.172   0.112  -0.129  -0.090  -0.531   0.039   0.026   0.131


------------------------ aborting loop because EDIFF is reached ----------------------------------------


    CHARGE:  cpu time    0.77: real time    0.77
    FORLOC:  cpu time    0.16: real time    0.16
    FORNL :  cpu time    1.76: real time    1.77
    STRESS:  cpu time    5.34: real time    5.35
    FORCOR:  cpu time    0.80: real time    0.80
    FORHAR:  cpu time    0.32: real time    0.32
    MIXING:  cpu time    0.02: real time    0.02

  FORCE on cell =-STRESS in cart. coord.  units (eV):
  Direction    XX          YY          ZZ          XY          YZ          ZX
  --------------------------------------------------------------------------------------
  Alpha Z    39.19705    39.19705    39.19705
  Ewald   16654.30517 16771.03630 16894.78582    40.74710   171.21751    50.51447
  Hartree 19408.11504 19490.20094 19578.19298    27.45452   115.93922    33.25764
  E(xc)    -981.36664  -981.21032  -981.04875     0.05875     0.24467     0.07535
  Local  -39006.24438-39196.33005-39399.21991   -65.00305  -273.69998   -79.44674
  n-local  -344.81796  -342.44501  -340.14036     0.84508     3.57294     1.14029
  augment    -5.39416    -5.70333    -6.00315    -0.10094    -0.45880    -0.14262
  Kinetic  4235.64375  4224.89556  4213.86475    -4.01723   -16.82693    -5.23350
  Fock        0.00000     0.00000     0.00000     0.00000     0.00000     0.00000
  -------------------------------------------------------------------------------------
  Total      -0.56213    -0.35887    -0.37157    -0.01576    -0.01136     0.16489
  in kB      -0.11258    -0.07187    -0.07441    -0.00316    -0.00227     0.03302
  external pressure =       -0.09 kB  Pullay stress =        0.00 kB


 VOLUME and BASIS-vectors are now :
 -----------------------------------------------------------------------------
  energy-cutoff  :      520.00
  volume of cell :     8000.00
      direct lattice vectors                 reciprocal lattice vectors
    20.000000000  0.000000000  0.000000000     0.050000000  0.000000000  0.000000000
     0.000000000 20.000000000  0.000000000     0.000000000  0.050000000  0.000000000
     0.000000000  0.000000000 20.000000000     0.000000000  0.000000000  0.050000000

  length of vectors
    20.000000000 20.000000000 20.000000000     0.050000000  0.050000000  0.050000000


 FORCES acting on ions
    electron-ion (+dipol)            ewald-force                    non-local-force                 convergence-correction
 -----------------------------------------------------------------------------------------------
   0.355E+03 -.385E+03 -.329E+03   -.364E+03 0.396E+03 0.338E+03   0.895E+01 -.102E+02 -.900E+01   -.168E-02 -.576E-04 -.785E-02
   0.555E+03 -.234E+03 0.905E+02   -.567E+03 0.239E+03 -.929E+02   0.125E+02 -.486E+01 0.238E+01   -.100E-01 0.618E-02 0.843E-03
   0.471E+03 0.217E+03 -.322E+03   -.481E+03 -.222E+03 0.329E+03   0.104E+02 0.452E+01 -.756E+01   -.121E-01 -.741E-02 0.836E-03
   0.617E+02 -.519E+03 0.313E+03   -.630E+02 0.531E+03 -.319E+03   0.129E+01 -.119E+02 0.650E+01   -.187E-02 0.787E-02 -.122E-01
   0.194E+03 -.130E+03 0.569E+03   -.200E+03 0.133E+03 -.584E+03   0.513E+01 -.288E+01 0.152E+02   -.317E-02 0.567E-02 0.300E-03
   0.396E+03 0.465E+03 0.936E+02   -.406E+03 -.478E+03 -.965E+02   0.102E+02 0.124E+02 0.293E+01   -.445E-02 0.255E-02 0.688E-02
   -.396E+03 -.465E+03 -.936E+02   0.406E+03 0.478E+03 0.965E+02   -.102E+02 -.124E+02 -.293E+01   0.445E-02 -.255E-02 -.688E-02
   -.194E+03 0.130E+03 -.569E+03   0.200E+03 -.133E+03 0.584E+03   -.513E+01 0.288E+01 -.152E+02   0.317E-02 -.567E-02 -.300E-03
   -.617E+02 0.519E+03 -.313E+03   0.630E+02 -.531E+03 0.319E+03   -.129E+01 0.119E+02 -.650E+01   0.187E-02 -.787E-02 0.122E-01
   -.471E+03 -.217E+03 0.322E+03   0.481E+03 0.222E+03 -.329E+03   -.104E+02 -.452E+01 0.756E+01   0.121E-01 0.741E-02 -.836E-03
   -.555E+03 0.234E+03 -.905E+02   0.567E+03 -.239E+03 0.929E+02   -.125E+02 0.486E+01 -.238E+01   0.100E-01 -.618E-02 -.843E-03
   -.355E+03 0.385E+03 0.329E+03   0.364E+03 -.396E+03 -.338E+03   -.895E+01 0.102E+02 0.900E+01   0.168E-02 0.576E-04 0.785E-02
   0.441E+03 -.958E+02 -.739E+02   -.441E+03 0.933E+02 0.775E+02   -.131E+00 0.250E+01 -.365E+01   -.290E-02 0.444E-02 0.105E-02
   0.360E+03 -.158E+03 -.240E+03   -.362E+03 0.155E+03 0.240E+03   0.164E+01 0.351E+01 0.123E+00   0.484E-04 0.204E-02 -.411E-02
   0.295E+03 -.371E+03 0.647E+02   -.292E+03 0.375E+03 -.645E+02   -.253E+01 -.397E+01 -.151E+00   -.504E-02 0.634E-02 0.212E-02
   0.245E+03 -.411E+03 -.522E+02   -.244E+03 0.414E+03 0.489E+02   -.118E+01 -.269E+01 0.332E+01   0.162E-03 0.690E-02 0.598E-03
   0.377E+02 -.477E+03 -.671E+02   -.378E+02 0.479E+03 0.676E+02   0.150E+00 -.127E+01 -.466E+00   -.972E-02 0.171E-02 -.211E-02
   0.202E+03 -.339E+03 0.237E+03   -.206E+03 0.337E+03 -.237E+03   0.390E+01 0.204E+01 -.531E+00   -.133E-03 0.324E-02 -.606E-02
   0.750E+02 -.290E+03 -.366E+03   -.704E+02 0.290E+03 0.368E+03   -.453E+01 0.294E+00 -.186E+01   -.690E-03 -.642E-02 -.966E-02
   0.302E+03 -.152E+02 -.372E+03   -.301E+03 0.189E+02 0.375E+03   -.148E+01 -.373E+01 -.312E+01   -.409E-02 -.834E-03 0.211E-03
   0.395E+03 -.621E+02 0.263E+03   -.395E+03 0.592E+02 -.268E+03   -.367E+00 0.290E+01 0.416E+01   -.189E-02 0.353E-02 -.900E-03
   0.462E+03 0.101E+03 -.473E+02   -.464E+03 -.997E+02 0.433E+02   0.218E+01 -.121E+01 0.399E+01   -.669E-02 -.406E-02 0.136E-02
   -.541E+02 -.406E+03 -.246E+03   0.541E+02 0.406E+03 0.246E+03   0.137E-03 -.672E+00 -.113E-01   -.216E-02 -.785E-02 -.594E-02
   0.252E+03 -.182E+03 0.340E+03   -.255E+03 0.183E+03 -.338E+03   0.249E+01 -.146E+01 -.259E+01   0.142E-02 0.102E-02 -.200E-02
   0.188E+03 -.315E+01 -.447E+03   -.189E+03 0.326E+01 0.448E+03   0.262E+00 -.114E+00 -.134E+01   0.125E-02 -.818E-02 0.577E-02
   0.406E+03 0.768E+02 0.256E+03   -.407E+03 -.773E+02 -.257E+03   0.103E+01 0.472E+00 0.771E+00   -.809E-02 -.385E-02 0.478E-02
   0.610E+02 -.175E+03 -.438E+03   -.613E+02 0.175E+03 0.439E+03   0.333E+00 -.670E-02 -.572E+00   0.367E-02 -.266E-02 -.750E-02
   -.455E+02 -.472E+03 0.447E+02   0.472E+02 0.474E+03 -.402E+02   -.164E+01 -.187E+01 -.443E+01   -.104E-02 0.307E-02 -.161E-02
   0.444E+03 0.173E+03 0.637E+02   -.447E+03 -.170E+03 -.645E+02   0.268E+01 -.344E+01 0.792E+00   -.604E-02 -.241E-02 -.331E-02
   -.179E+03 -.350E+03 -.263E+03   0.177E+03 0.350E+03 0.267E+03   0.279E+01 0.805E+00 -.394E+01   -.214E-02 -.718E-02 -.644E-02
   0.260E+03 0.296E+03 -.239E+03   -.257E+03 -.299E+03 0.238E+03   -.320E+01 0.304E+01 0.414E+00   -.470E-02 -.385E-02 -.397E-03
   -.147E+03 -.130E+03 -.429E+03   0.146E+03 0.135E+03 0.428E+03   0.529E+00 -.483E+01 0.668E+00   -.415E-02 -.451E-02 -.722E-02
   -.230E+03 -.392E+03 0.718E+02   0.228E+03 0.393E+03 -.748E+02   0.222E+01 -.756E+00 0.309E+01   0.390E-02 -.199E-02 -.606E-03
   -.110E+03 -.285E+03 0.368E+03   0.113E+03 0.282E+03 -.371E+03   -.312E+01 0.223E+01 0.274E+01   -.101E-02 0.430E-02 -.655E-02
   0.705E+02 0.181E+03 -.439E+03   -.748E+02 -.182E+03 0.440E+03   0.434E+01 0.733E+00 -.480E+00   -.294E-02 -.237E-02 0.603E-02
   0.255E+03 0.181E+03 0.362E+03   -.255E+03 -.181E+03 -.363E+03   0.557E+00 0.934E-02 0.356E+00   0.433E-02 0.121E-02 0.686E-02
   -.705E+02 -.181E+03 0.439E+03   0.748E+02 0.182E+03 -.440E+03   -.434E+01 -.733E+00 0.480E+00   0.294E-02 0.237E-02 -.603E-02
   -.255E+03 -.181E+03 -.362E+03   0.255E+03 0.181E+03 0.363E+03   -.557E+00 -.934E-02 -.356E+00   -.433E-02 -.121E-02 -.686E-02
   0.147E+03 0.130E+03 0.429E+03   -.146E+03 -.135E+03 -.428E+03   -.529E+00 0.483E+01 -.668E+00   0.415E-02 0.451E-02 0.722E-02
   0.110E+03 0.285E+03 -.368E+03   -.113E+03 -.282E+03 0.371E+03   0.312E+01 -.223E+01 -.274E+01   0.101E-02 -.430E-02 0.655E-02
   0.230E+03 0.392E+03 -.718E+02   -.228E+03 -.393E+03 0.748E+02   -.222E+01 0.756E+00 -.309E+01   -.390E-02 0.199E-02 0.606E-03
   -.260E+03 -.296E+03 0.239E+03   0.257E+03 0.299E+03 -.238E+03   0.320E+01 -.304E+01 -.414E+00   0.470E-02 0.385E-02 0.397E-03
   0.179E+03 0.350E+03 0.263E+03   -.177E+03 -.350E+03 -.267E+03   -.279E+01 -.805E+00 0.394E+01   0.214E-02 0.718E-02 0.644E-02
   -.610E+02 0.175E+03 0.438E+03   0.613E+02 -.175E+03 -.439E+03   -.333E+00 0.670E-02 0.572E+00   -.367E-02 0.266E-02 0.750E-02
   -.444E+03 -.173E+03 -.637E+02   0.447E+03 0.170E+03 0.645E+02   -.268E+01 0.344E+01 -.792E+00   0.604E-02 0.241E-02 0.331E-02
   -.188E+03 0.315E+01 0.447E+03   0.189E+03 -.326E+01 -.448E+03   -.262E+00 0.114E+00 0.134E+01   -.125E-02 0.818E-02 -.577E-02
   0.455E+02 0.472E+03 -.447E+02   -.472E+02 -.474E+03 0.402E+02   0.164E+01 0.187E+01 0.443E+01   0.104E-02 -.307E-02 0.161E-02
   -.406E+03 -.768E+02 -.256E+03   0.407E+03 0.773E+02 0.257E+03   -.103E+01 -.472E+00 -.771E+00   0.809E-02 0.385E-02 -.478E-02
   -.252E+03 0.182E+03 -.340E+03   0.255E+03 -.183E+03 0.338E+03   -.249E+01 0.146E+01 0.259E+01   -.142E-02 -.102E-02 0.200E-02
   0.541E+02 0.406E+03 0.246E+03   -.541E+02 -.406E+03 -.246E+03   -.137E-03 0.672E+00 0.113E-01   0.216E-02 0.785E-02 0.594E-02
   -.750E+02 0.290E+03 0.366E+03   0.704E+02 -.290E+03 -.368E+03   0.453E+01 -.294E+00 0.186E+01   0.690E-03 0.642E-02 0.966E-02
   -.462E+03 -.101E+03 0.473E+02   0.464E+03 0.997E+02 -.433E+02   -.218E+01 0.121E+01 -.399E+01   0.669E-02 0.406E-02 -.136E-02
   -.395E+03 0.621E+02 -.263E+03   0.395E+03 -.592E+02 0.268E+03   0.367E+00 -.290E+01 -.416E+01   0.189E-02 -.353E-02 0.900E-03
   -.202E+03 0.339E+03 -.237E+03   0.206E+03 -.337E+03 0.237E+03   -.390E+01 -.204E+01 0.531E+00   0.133E-03 -.324E-02 0.606E-02
   -.302E+03 0.152E+02 0.372E+03   0.301E+03 -.189E+02 -.375E+03   0.148E+01 0.373E+01 0.312E+01   0.409E-02 0.834E-03 -.211E-03
   -.377E+02 0.477E+03 0.671E+02   0.378E+02 -.479E+03 -.676E+02   -.150E+00 0.127E+01 0.466E+00   0.972E-02 -.171E-02 0.211E-02
   -.360E+03 0.158E+03 0.240E+03   0.362E+03 -.155E+03 -.240E+03   -.164E+01 -.351E+01 -.123E+00   -.484E-04 -.204E-02 0.411E-02
   -.245E+03 0.411E+03 0.522E+02   0.244E+03 -.414E+03 -.489E+02   0.118E+01 0.269E+01 -.332E+01   -.162E-03 -.690E-02 -.598E-03
   -.295E+03 0.371E+03 -.647E+02   0.292E+03 -.375E+03 0.645E+02   0.253E+01 0.397E+01 0.151E+00   0.504E-02 -.634E-02 -.212E-02
   -.441E+03 0.958E+02 0.739E+02   0.441E+03 -.933E+02 -.775E+02   0.131E+00 -.250E+01 0.365E+01   0.290E-02 -.444E-02 -.105E-02
 -----------------------------------------------------------------------------------------------
   -.214E-09 -.301E-10 -.950E-10   -.455E-12 0.146E-11 -.881E-12   0.328E-14 -.888E-15 -.444E-15   0.483E-11 0.563E-10 0.934E-10
 
 
 POSITION                                       TOTAL-FORCE (eV/Angst)
 -----------------------------------------------------------------------------------
      8.01282     12.36544     11.87851        -0.004563     -0.000376      0.000169
      6.82532     11.43087      9.37419        -0.003053      0.002815     -0.003937
      7.18966      8.86320     11.82542        -0.004782      0.001970     -0.004436
      9.78587     13.02995      8.18587         0.002309     -0.000461     -0.002936
      8.99698     10.70274      6.59896        -0.005292      0.004789      0.000256
      7.61829      7.35796      9.35330        -0.001092     -0.002011      0.005576
     12.38171     12.64204     10.64670         0.001092      0.002011     -0.005576
     11.00302      9.29726     13.40104         0.005292     -0.004789     -0.000256
     10.21413      6.97005     11.81413        -0.002309      0.000461      0.002936
     12.81034     11.13680      8.17458         0.004782     -0.001970      0.004436
     13.17468      8.56913     10.62581         0.003053     -0.002815      0.003937
     11.98718      7.63456      8.12149         0.004563      0.000376     -0.000169
      6.70967     10.69780     10.57214         0.002450      0.000838      0.007604
      7.29217     11.14307     11.78145        -0.006593      0.002898      0.000922
      7.69942     12.53459      9.41233        -0.008532     -0.003054      0.002633
      8.26682     13.00851     10.63243         0.008897      0.001357      0.004579
      9.58979     13.46191     10.60529        -0.000471     -0.008206     -0.010294
      8.48217     12.49815      8.24157        -0.003529     -0.004492     -0.002187
      9.26682     12.29646     12.56005         0.004833     -0.000795     -0.001854
      7.61071     10.01016     12.54188        -0.002939     -0.000378      0.001128
      7.09830     10.69592      8.19481        -0.000449      0.003991     -0.004270
      6.65321      9.29033     10.59546        -0.000322     -0.006023     -0.001551
     10.23123     13.00997     11.81625         0.002018      0.001375      0.017252
      8.10202     11.36633      7.48309         0.001125      0.004014     -0.004560
      8.79997      9.96887     13.32958        -0.003343     -0.006769     -0.014645
      7.03775      9.27007      8.20608         0.005448      0.007517      0.011840
      9.62674     11.15112     13.30907         0.004033      0.009629      0.010114
     10.37497     13.41770      9.41418         0.004322      0.002249     -0.000008
      6.83962      8.55105      9.38948         0.001177     -0.002017      0.000935
     11.57363     12.56173     11.82264        -0.003437     -0.004969      0.003341
      8.09211      7.78314     11.75788         0.007063      0.001267     -0.003097
     10.97169     10.72230     13.30100         0.001036      0.001290     -0.007874
     11.69135     12.93860      9.43911         0.005655      0.001715     -0.003224
     10.72966     12.26678      7.47126        -0.007295     -0.003361     -0.004558
      9.64963      8.85768     13.32125        -0.002331     -0.000211     -0.002606
      8.04449      8.57817      7.43802        -0.000727     -0.006515     -0.011122
     10.35037     11.14232      6.67875         0.002331      0.000211      0.002606
     11.95551     11.42183     12.56198         0.000727      0.006515      0.011122
      9.02831      9.27770      6.69900        -0.001036     -0.001290      0.007874
      9.27034      7.73322     12.52874         0.007295      0.003361      0.004558
      8.30865      7.06140     10.56089        -0.005655     -0.001715      0.003224
     11.90789     12.21686      8.24212        -0.007063     -0.001267      0.003097
      8.42637      7.43827      8.17736         0.003437      0.004969     -0.003341
     10.37326      8.84888      6.69093        -0.004033     -0.009629     -0.010114
     13.16038     11.44895     10.61052        -0.001177      0.002017     -0.000935
     11.20003     10.03113      6.67042         0.003343      0.006769      0.014645
      9.62503      6.58230     10.58582        -0.004322     -0.002249      0.000008
     12.96225     10.72993     11.79392        -0.005448     -0.007517     -0.011840
     11.89798      8.63367     12.51691        -0.001125     -0.004014      0.004560
      9.76877      6.99003      8.18375        -0.002018     -0.001375     -0.017252
     10.73318      7.70354      7.43995        -0.004833      0.000795      0.001854
     13.34679     10.70967      9.40454         0.000322      0.006023      0.001551
     12.90170      9.30408     11.80519         0.000449     -0.003991      0.004270
     11.51783      7.50185     11.75843         0.003529      0.004492      0.002187
     12.38929      9.98984      7.45812         0.002939      0.000378     -0.001128
     10.41021      6.53809      9.39471         0.000471      0.008206      0.010294
     12.70783      8.85693      8.21855         0.006593     -0.002898     -0.000922
     11.73318      6.99149      9.36757        -0.008897     -0.001357     -0.004579
     12.30058      7.46541     10.58767         0.008532      0.003054     -0.002633
     13.29033      9.30220      9.42786        -0.002450     -0.000838     -0.007604
 -----------------------------------------------------------------------------------
    total drift:                               -0.000000      0.000000     -0.000000


--------------------------------------------------------------------------------------------------------



  FREE ENERGIE OF THE ION-ELECTRON SYSTEM (eV)
  ---------------------------------------------------
  free  energy   TOTEN  =      -516.169946 eV

  energy  without entropy=     -516.137789  energy(sigma->0) =     -516.153868
 
 d Force = 0.1245208E-03[ 0.271E-04, 0.222E-03]  d Energy = 0.1423262E-03-0.178E-04
 d Force =-0.2003643E+01[-0.200E+01,-0.200E+01]  d Ewald  =-0.2003643E+01 0.363E-06


--------------------------------------------------------------------------------------------------------


    POTLOK:  cpu time    0.65: real time    0.66


--------------------------------------------------------------------------------------------------------


 Conjugate gradient step on ions:
 trial-energy change:   -0.000142  1 .order   -0.000125   -0.000222   -0.000027
  (g-gl).g = 0.837E-03      g.g   = 0.762E-03  gl.gl    = 0.200E-02
 g(Force)  = 0.762E-03   g(Stress)= 0.000E+00 ortho     =-0.140E-03
 gamma     =   0.41896
 trial     =   0.31581
 opt step  =   0.35972  (harmonic =   0.35972) maximal distance =0.00055747
 next E    =  -516.169930   (d E  =  -0.00013)


--------------------------------------------------------------------------------------------------------


  
 reached required accuracy - stopping structural energy minimisation
     LOOP+:  cpu time   26.06: real time   26.16
    4ORBIT:  cpu time    0.00: real time    0.00

 total amount of memory used by VASP on root node   117111. kBytes
========================================================================

   base      :      30000. kBytes
   nonlr-proj:       2174. kBytes
   fftplans  :      24017. kBytes
   grid      :      37845. kBytes
   one-center:         30. kBytes
   wavefun   :      23045. kBytes
 
  
  
 General timing and accounting informations for this job:
 ========================================================
  
                  Total CPU time used (sec):     1404.565
                            User time (sec):     1396.344
                          System time (sec):        8.222
                         Elapsed time (sec):     1418.607
  
                   Maximum memory used (kb):      331008.
                   Average memory used (kb):           0.
  
                          Minor page faults:       424454
                          Major page faults:          201
                 Voluntary context switches:         8546
