       N       E                     dE             d eps       ncg     rms          rms(c)
DAV:   1     0.268125333655E+04    0.26813E+04   -0.72488E+04   384   0.100E+03
DAV:   2     0.489732972887E+03   -0.21915E+04   -0.20228E+04   504   0.207E+02
DAV:   3    -0.440158139851E+03   -0.92989E+03   -0.91114E+03   416   0.139E+02
DAV:   4    -0.537742974109E+03   -0.97585E+02   -0.95674E+02   392   0.573E+01
DAV:   5    -0.542160772345E+03   -0.44178E+01   -0.39672E+01   448   0.103E+01    0.323E+01
DAV:   6    -0.519456769896E+03    0.22704E+02   -0.31450E+01   392   0.145E+01    0.188E+01
DAV:   7    -0.513455140409E+03    0.60016E+01   -0.28732E+01   384   0.123E+01    0.736E+00
DAV:   8    -0.513064200280E+03    0.39094E+00   -0.30472E+00   384   0.532E+00    0.369E+00
DAV:   9    -0.513035937564E+03    0.28263E-01   -0.62525E-01   384   0.220E+00    0.140E+00
DAV:  10    -0.513016468049E+03    0.19470E-01   -0.10332E-01   392   0.107E+00    0.494E-01
DAV:  11    -0.513014453101E+03    0.20149E-02   -0.25797E-02   376   0.488E-01    0.229E-01
DAV:  12    -0.513015625952E+03   -0.11729E-02   -0.54434E-03   368   0.189E-01    0.157E-01
DAV:  13    -0.513019190533E+03   -0.35646E-02   -0.35453E-03   368   0.129E-01    0.865E-02
DAV:  14    -0.513025792497E+03   -0.66020E-02   -0.32493E-03   376   0.106E-01    0.631E-02
DAV:  15    -0.513030005857E+03   -0.42134E-02   -0.11099E-03   320   0.609E-02    0.441E-02
DAV:  16    -0.513034041038E+03   -0.40352E-02   -0.78404E-04   304   0.421E-02    0.208E-02
DAV:  17    -0.513037356721E+03   -0.33157E-02   -0.20371E-04   296   0.245E-02    0.152E-02
DAV:  18    -0.513040423684E+03   -0.30670E-02   -0.18617E-04   272   0.188E-02    0.877E-03
DAV:  19    -0.513042228836E+03   -0.18052E-02   -0.10534E-04   264   0.139E-02    0.510E-03
DAV:  20    -0.513042928538E+03   -0.69970E-03   -0.40405E-05   248   0.878E-03    0.333E-03
DAV:  21    -0.513043454971E+03   -0.52643E-03   -0.52024E-05   240   0.770E-03    0.181E-03
DAV:  22    -0.513043599685E+03   -0.14471E-03   -0.16816E-05   224   0.503E-03    0.102E-03
DAV:  23    -0.513043655646E+03   -0.55961E-04   -0.97181E-06   240   0.330E-03
   1 F= -.51304366E+03 E0= -.51292986E+03  d E =-.513044E+03
       N       E                     dE             d eps       ncg     rms          rms(c)
DAV:   1    -0.502427315728E+03    0.10616E+02   -0.17293E+03   344   0.114E+02    0.182E+01
DAV:   2    -0.505629539311E+03   -0.32022E+01   -0.55899E+01   400   0.204E+01    0.753E+00
DAV:   3    -0.504854820591E+03    0.77472E+00   -0.29784E+00   408   0.489E+00    0.527E+00
DAV:   4    -0.504548465423E+03    0.30636E+00   -0.72371E-01   392   0.257E+00    0.174E+00
DAV:   5    -0.504531738092E+03    0.16727E-01   -0.19417E-01   392   0.126E+00    0.473E-01
DAV:   6    -0.504533260985E+03   -0.15229E-02   -0.25409E-02   376   0.452E-01    0.260E-01
DAV:   7    -0.504533685855E+03   -0.42487E-03   -0.19566E-03   408   0.145E-01    0.821E-02
DAV:   8    -0.504534491976E+03   -0.80612E-03   -0.58803E-04   384   0.719E-02    0.396E-02
DAV:   9    -0.504535528795E+03   -0.10368E-02   -0.14977E-04   256   0.374E-02    0.182E-02
DAV:  10    -0.504536627835E+03   -0.10990E-02   -0.11874E-04   272   0.253E-02    0.134E-02
DAV:  11    -0.504537976323E+03   -0.13485E-02   -0.14404E-04   272   0.282E-02    0.843E-03
DAV:  12    -0.504538615570E+03   -0.63925E-03   -0.62244E-05   256   0.154E-02    0.483E-03
DAV:  13    -0.504538950397E+03   -0.33483E-03   -0.23369E-05   256   0.965E-03    0.284E-03
DAV:  14    -0.504539118938E+03   -0.16854E-03   -0.15049E-05   256   0.609E-03    0.182E-03
DAV:  15    -0.504539263214E+03   -0.14428E-03   -0.10771E-05   248   0.475E-03    0.900E-04
DAV:  16    -0.504539323442E+03   -0.60228E-04   -0.65672E-06   256   0.324E-03
   2 F= -.50453932E+03 E0= -.50452205E+03  d E =0.850433E+01
       N       E                     dE             d eps       ncg     rms          rms(c)
DAV:   1    -0.513508809545E+03   -0.89695E+01   -0.88095E+02   328   0.820E+01    0.130E+01
DAV:   2    -0.515005706215E+03   -0.14969E+01   -0.29754E+01   392   0.144E+01    0.644E+00
DAV:   3    -0.514680309064E+03    0.32540E+00   -0.18065E+00   384   0.389E+00    0.533E+00
DAV:   4    -0.514539923882E+03    0.14039E+00   -0.43075E-01   360   0.181E+00    0.301E+00
DAV:   5    -0.514505597894E+03    0.34326E-01   -0.18951E-01   392   0.122E+00    0.633E-01
DAV:   6    -0.514509039888E+03   -0.34420E-02   -0.37525E-02   376   0.515E-01    0.396E-01
DAV:   7    -0.514509960404E+03   -0.92052E-03   -0.49395E-03   400   0.196E-01    0.153E-01
DAV:   8    -0.514510790295E+03   -0.82989E-03   -0.74538E-04   392   0.806E-02    0.543E-02
DAV:   9    -0.514511479943E+03   -0.68965E-03   -0.20057E-04   264   0.379E-02    0.231E-02
DAV:  10    -0.514511935389E+03   -0.45545E-03   -0.66924E-05   240   0.203E-02    0.122E-02
DAV:  11    -0.514512562147E+03   -0.62676E-03   -0.10716E-04   256   0.173E-02    0.709E-03
DAV:  12    -0.514512954115E+03   -0.39197E-03   -0.63919E-05   264   0.125E-02    0.753E-03
DAV:  13    -0.514513213258E+03   -0.25914E-03   -0.48332E-05   256   0.950E-03    0.281E-03
DAV:  14    -0.514513300586E+03   -0.87328E-04   -0.15125E-05   248   0.613E-03
   3 F= -.51451330E+03 E0= -.51444509E+03  d E =-.146964E+01
       N       E                     dE             d eps       ncg     rms          rms(c)
DAV:   1    -0.514987408033E+03   -0.47419E+00   -0.14279E+02   320   0.328E+01    0.229E+00
DAV:   2    -0.515174950391E+03   -0.18754E+00   -0.25286E+00   400   0.412E+00    0.152E+00
DAV:   3    -0.515145951304E+03    0.28999E-01   -0.11216E-01   392   0.105E+00    0.808E-01
DAV:   4    -0.515141374663E+03    0.45766E-02   -0.29923E-02   384   0.507E-01    0.257E-01
DAV:   5    -0.515142020012E+03   -0.64535E-03   -0.58380E-03   400   0.199E-01    0.114E-01
DAV:   6    -0.515142053814E+03   -0.33803E-04   -0.69293E-04   376   0.724E-02
   4 F= -.51514205E+03 E0= -.51511170E+03  d E =-.628753E+00
       N       E                     dE             d eps       ncg     rms          rms(c)
DAV:   1    -0.515146525169E+03   -0.45052E-02   -0.16172E+00   336   0.350E+00    0.239E-01
DAV:   2    -0.515148685969E+03   -0.21608E-02   -0.28312E-02   400   0.430E-01    0.163E-01
DAV:   3    -0.515148480714E+03    0.20525E-03   -0.11869E-03   408   0.105E-01    0.104E-01
DAV:   4    -0.515148494944E+03   -0.14229E-04   -0.23734E-04   256   0.492E-02
   5 F= -.51514849E+03 E0= -.51512116E+03  d E =-.635194E+00
       N       E                     dE             d eps       ncg     rms          rms(c)
DAV:   1    -0.515429096139E+03   -0.28062E+00   -0.70612E+01   320   0.230E+01    0.172E+00
DAV:   2    -0.515501244962E+03   -0.72149E-01   -0.12738E+00   392   0.296E+00    0.106E+00
DAV:   3    -0.515487831605E+03    0.13413E-01   -0.77708E-02   392   0.810E-01    0.558E-01
DAV:   4    -0.515484929804E+03    0.29018E-02   -0.16887E-02   384   0.376E-01    0.182E-01
DAV:   5    -0.515485310393E+03   -0.38059E-03   -0.32755E-03   400   0.149E-01    0.817E-02
DAV:   6    -0.515485419295E+03   -0.10890E-03   -0.24124E-04   256   0.480E-02    0.427E-02
DAV:   7    -0.515485549101E+03   -0.12981E-03   -0.77997E-05   216   0.263E-02    0.121E-02
DAV:   8    -0.515485638483E+03   -0.89383E-04   -0.19504E-05   216   0.124E-02
   6 F= -.51548564E+03 E0= -.51545178E+03  d E =-.337144E+00
       N       E                     dE             d eps       ncg     rms          rms(c)
DAV:   1    -0.515487725448E+03   -0.21763E-02   -0.57813E-01   320   0.208E+00    0.153E-01
DAV:   2    -0.515488318158E+03   -0.59271E-03   -0.10374E-02   392   0.266E-01    0.980E-02
DAV:   3    -0.515488246383E+03    0.71775E-04   -0.62235E-04   392   0.721E-02
   7 F= -.51548825E+03 E0= -.51545369E+03  d E =-.339751E+00
       N       E                     dE             d eps       ncg     rms          rms(c)
DAV:   1    -0.515555203890E+03   -0.66886E-01   -0.14373E+01   328   0.105E+01    0.771E-01
DAV:   2    -0.515574038910E+03   -0.18835E-01   -0.29066E-01   392   0.143E+00    0.516E-01
DAV:   3    -0.515570574331E+03    0.34646E-02   -0.16877E-02   400   0.387E-01    0.304E-01
DAV:   4    -0.515569855897E+03    0.71843E-03   -0.46109E-03   376   0.198E-01    0.115E-01
DAV:   5    -0.515569953005E+03   -0.97108E-04   -0.77465E-04   360   0.757E-02
   8 F= -.51556995E+03 E0= -.51553799E+03  d E =-.817066E-01
       N       E                     dE             d eps       ncg     rms          rms(c)
DAV:   1    -0.515570072169E+03   -0.21627E-03   -0.15281E-02   352   0.345E-01    0.332E-02
DAV:   2    -0.515570130848E+03   -0.58679E-04   -0.32419E-04   288   0.479E-02
   9 F= -.51557013E+03 E0= -.51553826E+03  d E =-.818845E-01
       N       E                     dE             d eps       ncg     rms          rms(c)
DAV:   1    -0.515603763213E+03   -0.33691E-01   -0.42985E+00   320   0.578E+00    0.404E-01
DAV:   2    -0.515608475554E+03   -0.47123E-02   -0.77436E-02   392   0.724E-01    0.259E-01
DAV:   3    -0.515607912963E+03    0.56259E-03   -0.40582E-03   384   0.192E-01    0.157E-01
DAV:   4    -0.515607773622E+03    0.13934E-03   -0.12896E-03   376   0.102E-01    0.544E-02
DAV:   5    -0.515607817644E+03   -0.44022E-04   -0.19109E-04   256   0.411E-02
  10 F= -.51560782E+03 E0= -.51557729E+03  d E =-.376868E-01
       N       E                     dE             d eps       ncg     rms          rms(c)
DAV:   1    -0.515614016525E+03   -0.62429E-02   -0.23531E+00   320   0.427E+00    0.300E-01
DAV:   2    -0.515616659833E+03   -0.26433E-02   -0.42430E-02   400   0.535E-01    0.191E-01
DAV:   3    -0.515616372296E+03    0.28754E-03   -0.22065E-03   384   0.142E-01    0.116E-01
DAV:   4    -0.515616310977E+03    0.61319E-04   -0.68367E-04   360   0.746E-02
  11 F= -.51561631E+03 E0= -.51558669E+03  d E =-.461801E-01
       N       E                     dE             d eps       ncg     rms          rms(c)
DAV:   1    -0.515632324643E+03   -0.15952E-01   -0.52284E+00   320   0.642E+00    0.447E-01
DAV:   2    -0.515638789477E+03   -0.64648E-02   -0.95288E-02   392   0.791E-01    0.275E-01
DAV:   3    -0.515638205632E+03    0.58384E-03   -0.42737E-03   384   0.196E-01    0.168E-01
DAV:   4    -0.515638093348E+03    0.11228E-03   -0.13153E-03   376   0.105E-01    0.584E-02
DAV:   5    -0.515638144114E+03   -0.50766E-04   -0.21580E-04   264   0.433E-02
  12 F= -.51563814E+03 E0= -.51560996E+03  d E =-.218331E-01
       N       E                     dE             d eps       ncg     rms          rms(c)
DAV:   1    -0.515638184815E+03   -0.91467E-04   -0.35663E-03   352   0.169E-01    0.194E-02
DAV:   2    -0.515638206145E+03   -0.21330E-04   -0.64691E-05   232   0.225E-02
  13 F= -.51563821E+03 E0= -.51561008E+03  d E =-.218952E-01
       N       E                     dE             d eps       ncg     rms          rms(c)
DAV:   1    -0.515645482722E+03   -0.72979E-02   -0.14855E+00   320   0.342E+00    0.245E-01
DAV:   2    -0.515647665498E+03   -0.21828E-02   -0.28904E-02   392   0.437E-01    0.152E-01
DAV:   3    -0.515647464577E+03    0.20092E-03   -0.11893E-03   384   0.109E-01    0.974E-02
DAV:   4    -0.515647443241E+03    0.21336E-04   -0.31274E-04   280   0.531E-02
  14 F= -.51564744E+03 E0= -.51562068E+03  d E =-.923710E-02
       N       E                     dE             d eps       ncg     rms          rms(c)
DAV:   1    -0.515647932351E+03   -0.46777E-03   -0.19054E-01   320   0.122E+00    0.933E-02
DAV:   2    -0.515648201123E+03   -0.26877E-03   -0.35615E-03   400   0.154E-01    0.549E-02
DAV:   3    -0.515648183433E+03    0.17690E-04   -0.14137E-04   248   0.405E-02
  15 F= -.51564818E+03 E0= -.51562189E+03  d E =-.997729E-02
       N       E                     dE             d eps       ncg     rms          rms(c)
DAV:   1    -0.515652746379E+03   -0.45453E-02   -0.15421E+00   320   0.344E+00    0.239E-01
DAV:   2    -0.515654717824E+03   -0.19714E-02   -0.28379E-02   392   0.431E-01    0.149E-01
DAV:   3    -0.515654564059E+03    0.15377E-03   -0.12858E-03   392   0.107E-01    0.956E-02
DAV:   4    -0.515654548163E+03    0.15896E-04   -0.23835E-04   240   0.477E-02
  16 F= -.51565455E+03 E0= -.51562785E+03  d E =-.636473E-02
       N       E                     dE             d eps       ncg     rms          rms(c)
DAV:   1    -0.515654695831E+03   -0.13177E-03   -0.61664E-02   344   0.688E-01    0.512E-02
DAV:   2    -0.515654769345E+03   -0.73513E-04   -0.10575E-03   392   0.840E-02    0.307E-02
DAV:   3    -0.515654770409E+03   -0.10643E-05   -0.48910E-05   224   0.229E-02
  17 F= -.51565477E+03 E0= -.51562800E+03  d E =-.658698E-02
       N       E                     dE             d eps       ncg     rms          rms(c)
DAV:   1    -0.515656865762E+03   -0.20964E-02   -0.82061E-01   328   0.252E+00    0.180E-01
DAV:   2    -0.515657841315E+03   -0.97555E-03   -0.15390E-02   384   0.325E-01    0.114E-01
DAV:   3    -0.515657742029E+03    0.99286E-04   -0.71744E-04   360   0.801E-02
  18 F= -.51565774E+03 E0= -.51563157E+03  d E =-.297162E-02
       N       E                     dE             d eps       ncg     rms          rms(c)
DAV:   1    -0.515657737966E+03    0.10335E-03   -0.33736E-03   344   0.162E-01    0.333E-02
DAV:   2    -0.515657737335E+03    0.63120E-06   -0.43509E-05   232   0.198E-02
  19 F= -.51565774E+03 E0= -.51563159E+03  d E =-.296693E-02
       N       E                     dE             d eps       ncg     rms          rms(c)
DAV:   1    -0.515658730621E+03   -0.99266E-03   -0.35215E-01   320   0.166E+00    0.119E-01
DAV:   2    -0.515659192819E+03   -0.46220E-03   -0.64705E-03   392   0.207E-01    0.729E-02
DAV:   3    -0.515659149652E+03    0.43167E-04   -0.24284E-04   256   0.509E-02
  20 F= -.51565915E+03 E0= -.51563336E+03  d E =-.141232E-02
       N       E                     dE             d eps       ncg     rms          rms(c)
DAV:   1    -0.515659166772E+03    0.26047E-04   -0.82411E-03   344   0.255E-01    0.301E-02
DAV:   2    -0.515659171051E+03   -0.42783E-05   -0.10509E-04   232   0.290E-02
  21 F= -.51565917E+03 E0= -.51563343E+03  d E =-.143372E-02
       N       E                     dE             d eps       ncg     rms          rms(c)
DAV:   1    -0.515659567829E+03   -0.40106E-03   -0.20660E-01   320   0.129E+00    0.923E-02
DAV:   2    -0.515659860286E+03   -0.29246E-03   -0.40379E-03   384   0.164E-01    0.588E-02
DAV:   3    -0.515659832745E+03    0.27541E-04   -0.13615E-04   248   0.405E-02
  22 F= -.51565983E+03 E0= -.51563411E+03  d E =-.661695E-03
       N       E                     dE             d eps       ncg     rms          rms(c)
DAV:   1    -0.515659838096E+03    0.22190E-04   -0.92326E-04   320   0.861E-02    0.118E-02
DAV:   2    -0.515659844306E+03   -0.62097E-05   -0.37857E-05   232   0.176E-02
  23 F= -.51565984E+03 E0= -.51563412E+03  d E =-.673255E-03
       N       E                     dE             d eps       ncg     rms          rms(c)
DAV:   1    -0.515660058025E+03   -0.21993E-03   -0.73969E-02   320   0.769E-01    0.562E-02
DAV:   2    -0.515660158702E+03   -0.10068E-03   -0.14454E-03   384   0.988E-02    0.354E-02
DAV:   3    -0.515660146975E+03    0.11726E-04   -0.52497E-05   216   0.254E-02
  24 F= -.51566015E+03 E0= -.51563470E+03  d E =-.302669E-03
       N       E                     dE             d eps       ncg     rms          rms(c)
DAV:   1    -0.515660147141E+03    0.11560E-04   -0.73524E-05   216   0.265E-02    0.622E-03
DAV:   2    -0.515660148633E+03   -0.14916E-05   -0.92085E-06   208   0.971E-03
  25 F= -.51566015E+03 E0= -.51563470E+03  d E =-.304327E-03
       N       E                     dE             d eps       ncg     rms          rms(c)
DAV:   1    -0.515660289982E+03   -0.14284E-03   -0.46820E-02   328   0.608E-01    0.398E-02
DAV:   2    -0.515660353065E+03   -0.63083E-04   -0.84082E-04   384   0.763E-02
  26 F= -.51566035E+03 E0= -.51563512E+03  d E =-.204432E-03
       N       E                     dE             d eps       ncg     rms          rms(c)
DAV:   1    -0.515660352007E+03   -0.62025E-04   -0.28620E-04   288   0.492E-02    0.174E-02
DAV:   2    -0.515660351286E+03    0.72025E-06   -0.14178E-05   208   0.117E-02
  27 F= -.51566035E+03 E0= -.51563510E+03  d E =-.202654E-03
       N       E                     dE             d eps       ncg     rms          rms(c)
DAV:   1    -0.515660459112E+03   -0.10711E-03   -0.27905E-02   344   0.466E-01    0.309E-02
DAV:   2    -0.515660494253E+03   -0.35140E-04   -0.48778E-04   312   0.596E-02
  28 F= -.51566049E+03 E0= -.51563526E+03  d E =-.142966E-03
