 vasp.5.2.12 11Nov11 complex                                                    
  
 executed on             LinuxIFC date 2017.09.28  22:58:51
 running on   24 nodes
 distr:  one band on    6 nodes,    4 groups


--------------------------------------------------------------------------------------------------------


 INCAR:
 POTCAR:    PAW_PBE N 08Apr2002                   
 POTCAR:    PAW_PBE C 08Apr2002                   
 POTCAR:    PAW_PBE N 08Apr2002                   
   VRHFIN =N: s2p3                                                              
   LEXCH  = PE                                                                  
   EATOM  =   264.5486 eV,   19.4438 Ry                                         
                                                                                
   TITEL  = PAW_PBE N 08Apr2002                                                 
   LULTRA =        F    use ultrasoft PP ?                                      
   IUNSCR =        1    unscreen: 0-lin 1-nonlin 2-no                           
   RPACOR =    1.200    partial core radius                                     
   POMASS =   14.001; ZVAL   =    5.000    mass and valenz                      
   RCORE  =    1.500    outmost cutoff radius                                   
   RWIGS  =    1.400; RWIGS  =    0.741    wigner-seitz radius (au A)           
   ENMAX  =  400.000; ENMIN  =  300.000 eV                                      
   ICORE  =        2    local potential                                         
   LCOR   =        T    correct aug charges                                     
   LPAW   =        T    paw PP                                                  
   EAUG   =  627.112                                                            
   DEXC   =    0.000                                                            
   RMAX   =    1.529    core radius for proj-oper                               
   RAUG   =    1.300    factor for augmentation sphere                          
   RDEP   =    1.514    radius for radial grids                                 
   RDEPT  =    1.338    core radius for aug-charge                              
                                                                                
   Atomic configuration                                                         
    4 entries                                                                   
     n  l   j            E        occ.                                          
     1  0  0.50      -384.7179   2.0000                                         
     2  0  0.50       -18.5828   2.0000                                         
     2  1  0.50        -7.0898   3.0000                                         
     3  2  1.50        -6.8029   0.0000                                         
   Description                                                                  
     l       E           TYP  RCUT    TYP  RCUT                                 
     0    -18.5828119     23  1.200                                             
     0    -13.5018863     23  1.200                                             
     1     -7.0897853     23  1.500                                             
     1      9.5240782     23  1.500                                             
     2     -6.8029130      7  1.500                                             
  local pseudopotential read in
  partial core-charges read in
  partial kinetic energy density read in
  atomic valenz-charges read in
  non local Contribution for L=           0  read in
    real space projection operators read in
  non local Contribution for L=           0  read in
    real space projection operators read in
  non local Contribution for L=           1  read in
    real space projection operators read in
  non local Contribution for L=           1  read in
    real space projection operators read in
    PAW grid and wavefunctions read in
 
   number of l-projection  operators is LMAX  =           4
   number of lm-projection operators is LMMAX =           8
 
 POTCAR:    PAW_PBE C 08Apr2002                   
   VRHFIN =C: s2p2                                                              
   LEXCH  = PE                                                                  
   EATOM  =   147.1560 eV,   10.8157 Ry                                         
                                                                                
   TITEL  = PAW_PBE C 08Apr2002                                                 
   LULTRA =        F    use ultrasoft PP ?                                      
   IUNSCR =        1    unscreen: 0-lin 1-nonlin 2-no                           
   RPACOR =    1.200    partial core radius                                     
   POMASS =   12.011; ZVAL   =    4.000    mass and valenz                      
   RCORE  =    1.500    outmost cutoff radius                                   
   RWIGS  =    1.630; RWIGS  =    0.863    wigner-seitz radius (au A)           
   ENMAX  =  400.000; ENMIN  =  300.000 eV                                      
   ICORE  =        2    local potential                                         
   LCOR   =        T    correct aug charges                                     
   LPAW   =        T    paw PP                                                  
   EAUG   =  644.873                                                            
   DEXC   =    0.000                                                            
   RMAX   =    1.529    core radius for proj-oper                               
   RAUG   =    1.300    factor for augmentation sphere                          
   RDEP   =    1.501    radius for radial grids                                 
   RDEPT  =    1.300    core radius for aug-charge                              
                                                                                
   Atomic configuration                                                         
    4 entries                                                                   
     n  l   j            E        occ.                                          
     1  0  0.50      -273.3789   2.0000                                         
     2  0  0.50       -13.7508   2.0000                                         
     2  1  0.50        -5.2854   2.0000                                         
     3  2  1.50        -5.4423   0.0000                                         
   Description                                                                  
     l       E           TYP  RCUT    TYP  RCUT                                 
     0    -13.7508458     23  1.200                                             
     0     -8.2022199     23  1.200                                             
     1     -5.2854383     23  1.500                                             
     1     34.0145650     23  1.500                                             
     2     -5.4423304      7  1.500                                             
  local pseudopotential read in
  partial core-charges read in
  partial kinetic energy density read in
  atomic valenz-charges read in
  non local Contribution for L=           0  read in
    real space projection operators read in
  non local Contribution for L=           0  read in
    real space projection operators read in
  non local Contribution for L=           1  read in
    real space projection operators read in
  non local Contribution for L=           1  read in
    real space projection operators read in
    PAW grid and wavefunctions read in
 
   number of l-projection  operators is LMAX  =           4
   number of lm-projection operators is LMMAX =           8
 
 Optimization of the real space projectors (new method)

 maximal supplied QI-value         = 25.13
 optimisation between [QCUT,QGAM] = [ 11.56, 23.12] = [ 37.43,149.72] Ry 
 Optimized for a Real-space Cutoff    1.25 Angstroem

   l    n(q)    QCUT    max X(q) W(low)/X(q) W(high)/X(q)  e(spline) 
   0      9    11.561    79.467    0.52E-04    0.16E-03    0.37E-06
   0      9    11.561    66.151    0.51E-04    0.16E-03    0.37E-06
   1      8    11.561    18.886    0.46E-03    0.28E-03    0.80E-06
   1      8    11.561    13.488    0.47E-03    0.29E-03    0.82E-06
 Optimization of the real space projectors (new method)

 maximal supplied QI-value         = 25.13
 optimisation between [QCUT,QGAM] = [ 11.56, 23.12] = [ 37.43,149.72] Ry 
 Optimized for a Real-space Cutoff    1.04 Angstroem

   l    n(q)    QCUT    max X(q) W(low)/X(q) W(high)/X(q)  e(spline) 
   0      7    11.561   115.676    0.20E-03    0.60E-03    0.21E-06
   0      7    11.561    87.132    0.20E-03    0.59E-03    0.21E-06
   1      7    11.561     4.429    0.23E-03    0.35E-03    0.15E-06
   1      7    11.561     2.733    0.18E-03    0.25E-03    0.12E-06
  PAW_PBE N 08Apr2002                   :
 energy of atom  1       EATOM= -264.5486
 kinetic energy error for atom=    0.0125 (will be added to EATOM!!)
  PAW_PBE C 08Apr2002                   :
 energy of atom  2       EATOM= -147.1560
 kinetic energy error for atom=    0.0071 (will be added to EATOM!!)
 
 
 POSCAR: $POSCAR   2  N  C                       
  positions in direct lattice
  No initial velocities read in
 exchange correlation table for  LEXCH =        8
   RHO(1)=    0.500       N(1)  =     2000
   RHO(2)=  100.500       N(2)  =     4000
 


--------------------------------------------------------------------------------------------------------


 ion  position               nearest neighbor table
   1  0.401  0.615  0.592-  13 1.40  18 1.45  15 1.45
   2  0.329  0.536  0.530-  16 1.40  21 1.45  13 1.45
   3  0.482  0.674  0.530-  26 1.40  15 1.45  22 1.45
   4  0.438  0.500  0.667-  19 1.40  25 1.45  33 1.45
   5  0.352  0.465  0.408-  20 1.40  34 1.45  27 1.45
   6  0.488  0.652  0.408-  17 1.40  32 1.45  26 1.45
   7  0.401  0.385  0.592-  24 1.40  38 1.45  39 1.45
   8  0.519  0.559  0.333-  32 1.40  45 1.45  28 1.45
   9  0.617  0.630  0.530-  31 1.40  44 1.45  29 1.45
  10  0.640  0.559  0.408-  41 1.40  54 1.45  52 1.45
  11  0.648  0.465  0.592-  47 1.40  49 1.45  57 1.45
  12  0.587  0.348  0.470-  58 1.40  55 1.45  59 1.45
  13  0.360  0.559  0.592-   1 1.40  19 1.45   2 1.45
  14  0.383  0.630  0.470-  15 1.40  16 1.45  17 1.45
  15  0.413  0.652  0.530-  14 1.40   3 1.45   1 1.45
  16  0.340  0.571  0.470-   2 1.40  14 1.45  20 1.45
  17  0.421  0.630  0.408-   6 1.40  23 1.45  14 1.45
  18  0.462  0.615  0.630-  25 1.40   1 1.45  22 1.45
  19  0.379  0.500  0.630-   4 1.40  13 1.45  24 1.45
  20  0.352  0.535  0.408-   5 1.40  23 1.45  16 1.45
  21  0.329  0.464  0.530-  27 1.40   2 1.45  24 1.45
  22  0.512  0.652  0.592-  29 1.40  18 1.45   3 1.45
  23  0.402  0.571  0.370-  28 1.40  17 1.45  20 1.45
  24  0.360  0.441  0.592-   7 1.40  19 1.45  21 1.45
  25  0.481  0.559  0.667-  18 1.40   4 1.45  30 1.45
  26  0.518  0.674  0.470-   3 1.40  31 1.45   6 1.45
  27  0.340  0.429  0.470-  21 1.40  35 1.45   5 1.45
  28  0.450  0.536  0.333-  23 1.40  37 1.45   8 1.45
  29  0.579  0.630  0.592-  22 1.40  36 1.45   9 1.45
  30  0.550  0.536  0.667-  36 1.40  40 1.45  25 1.45
  31  0.587  0.652  0.470-   9 1.40  26 1.45  41 1.45
  32  0.538  0.615  0.370-   8 1.40  41 1.45   6 1.45
  33  0.481  0.441  0.667-  38 1.40   4 1.45  40 1.45
  34  0.402  0.429  0.370-  37 1.40  42 1.45   5 1.45
  35  0.383  0.370  0.470-  39 1.40  27 1.45  42 1.45
  36  0.598  0.571  0.630-  30 1.40  29 1.45  47 1.45
  37  0.450  0.464  0.333-  34 1.40  28 1.45  43 1.45
  38  0.462  0.385  0.630-  33 1.40   7 1.45  48 1.45
  39  0.413  0.348  0.530-  35 1.40  46 1.45   7 1.45
  40  0.550  0.464  0.667-  49 1.40  30 1.45  33 1.45
  41  0.599  0.615  0.408-  10 1.40  32 1.45  31 1.45
  42  0.421  0.370  0.408-  50 1.40  34 1.45  35 1.45
  43  0.519  0.441  0.333-  51 1.40  45 1.45  37 1.45
  44  0.660  0.571  0.530-  52 1.40   9 1.45  47 1.45
  45  0.562  0.500  0.333-  54 1.40  43 1.45   8 1.45
  46  0.482  0.326  0.530-  55 1.40  39 1.45  48 1.45
  47  0.648  0.535  0.592-  11 1.40  36 1.45  44 1.45
  48  0.512  0.348  0.592-  53 1.40  38 1.45  46 1.45
  49  0.598  0.429  0.630-  40 1.40  53 1.45  11 1.45
  50  0.488  0.348  0.408-  42 1.40  51 1.45  55 1.45
  51  0.538  0.385  0.370-  43 1.40  59 1.45  50 1.45
  52  0.671  0.536  0.470-  44 1.40  60 1.45  10 1.45
  53  0.579  0.370  0.592-  48 1.40  49 1.45  58 1.45
  54  0.621  0.500  0.370-  45 1.40  10 1.45  56 1.45
  55  0.518  0.326  0.470-  46 1.40  12 1.45  50 1.45
  56  0.640  0.441  0.408-  59 1.40  54 1.45  60 1.45
  57  0.660  0.429  0.530-  60 1.40  58 1.45  11 1.45
  58  0.617  0.370  0.530-  12 1.40  57 1.45  53 1.45
  59  0.599  0.385  0.408-  56 1.40  51 1.45  12 1.45
  60  0.671  0.464  0.470-  57 1.40  52 1.45  56 1.45
 
  LATTYP: Found a simple cubic cell.
 ALAT       =    20.0000000000
  
  Lattice vectors:
  
 A1 = (  20.0000000000,   0.0000000000,   0.0000000000)
 A2 = (   0.0000000000,  20.0000000000,   0.0000000000)
 A3 = (   0.0000000000,   0.0000000000,  20.0000000000)
 Subroutine PRICEL returns:
 Original cell was already a primitive cell.
 

Analysis of symmetry for initial positions (statically):

 Routine SETGRP: Setting up the symmetry group for a 
 simple cubic supercell.


 Subroutine GETGRP returns: Found  1 space group operations
 (whereof  1 operations were pure point group operations)
 out of a pool of 48 trial point group operations.


The static configuration has the point symmetry C_1 .

Analysis of symmetry for dynamics (positions and initial velocities):

 Subroutine DYNSYM returns: Found  1 space group operations
 (whereof  1 operations were pure point group operations)
 out of a pool of  1 trial space group operations
 (whereof  1 operations were pure point group operations)
 and found also     1 'primitive' translations


The dynamic configuration has the point symmetry C_1 .

Analysis of constrained symmetry for selective dynamics:

 Subroutine DYNSYM returns: Found  1 space group operations
 (whereof  1 operations were pure point group operations)
 out of a pool of  1 trial space group operations
 (whereof  1 operations were pure point group operations)
 and found also     1 'primitive' translations


The constrained configuration has the point symmetry C_1 .
 
 
 KPOINTS: AUTO                                    

Automatic generation of k-mesh.
 
 Subroutine IBZKPT returns following result:
 ===========================================
 
 Found      1 irreducible k-points:
 
 Following reciprocal coordinates:
            Coordinates               Weight
  0.000000  0.000000  0.000000      1.000000
 
 Following cartesian coordinates:
            Coordinates               Weight
  0.000000  0.000000  0.000000      1.000000
 


--------------------------------------------------------------------------------------------------------




 Dimension of arrays:
   k-points           NKPTS =      1   k-points in BZ     NKDIM =      1   number of bands    NBANDS=    160
   number of dos      NEDOS =    301   number of ions     NIONS =     60
   non local maximal  LDIM  =      4   non local SUM 2l+1 LMDIM =      8
   total plane-waves  NPLWV = ******
   max r-space proj   IRMAX =   1476   max aug-charges    IRDMAX=   2360
   dimension x,y,z NGX =   112 NGY =  112 NGZ =  112
   dimension x,y,z NGXF=   224 NGYF=  224 NGZF=  224
   support grid    NGXF=   224 NGYF=  224 NGZF=  224
   ions per type =              12  48
 NGX,Y,Z   is equivalent  to a cutoff of   9.31,  9.31,  9.31 a.u.
 NGXF,Y,Z  is equivalent  to a cutoff of  18.62, 18.62, 18.62 a.u.


 I would recommend the setting:
   dimension x,y,z NGX =   112 NGY =  112 NGZ =  112
 SYSTEM =  cluster                                 
 POSCAR =  $POSCAR   2  N  C                       

 Startparameter for this run:
   NWRITE =      2    write-flag & timer
   PREC   = normal    normal or accurate (medium, high low for compatibility)
   ISTART =      0    job   : 0-new  1-cont  2-samecut
   ICHARG =      2    charge: 1-file 2-atom 10-const
   ISPIN  =      1    spin polarized calculation?
   LNONCOLLINEAR =      F non collinear calculations
   LSORBIT =      F    spin-orbit coupling
   INIWAV =      1    electr: 0-lowe 1-rand  2-diag
   LASPH  =      F    aspherical Exc in radial PAW
   METAGGA=      F    non-selfconsistent MetaGGA calc.

 Electronic Relaxation 1
   ENCUT  =  520.0 eV  38.22 Ry    6.18 a.u.  37.19 37.19 37.19*2*pi/ulx,y,z
   ENINI  =  520.0     initial cutoff
   ENAUG  =  644.9 eV  augmentation charge cutoff
   NELM   =     60;   NELMIN=  2; NELMDL= -5     # of ELM steps 
   EDIFF  = 0.1E-03   stopping-criterion for ELM
   LREAL  =      T    real-space projection
   NLSPLINE    = F    spline interpolate recip. space projectors
   LCOMPAT=      F    compatible to vasp.4.4
   GGA_COMPAT  = T    GGA compatible to vasp.4.4-vasp.4.6
   LMAXPAW     = -100 max onsite density
   LMAXMIX     =    2 max onsite mixed and CHGCAR
   VOSKOWN=      0    Vosko Wilk Nusair interpolation
   ROPT   =   -0.00050  -0.00050
 Ionic relaxation
   EDIFFG = -.2E-01   stopping-criterion for IOM
   NSW    =    100    number of steps for IOM
   NBLOCK =      1;   KBLOCK =    100    inner block; outer block 
   IBRION =      2    ionic relax: 0-MD 1-quasi-New 2-CG
   NFREE  =      1    steps in history (QN), initial steepest desc. (CG)
   ISIF   =      2    stress and relaxation
   IWAVPR =     11    prediction:  0-non 1-charg 2-wave 3-comb
   ISYM   =      2    0-nonsym 1-usesym 2-fastsym
   LCORR  =      T    Harris-Foulkes like correction to forces

   POTIM  = 0.5000    time-step for ionic-motion
   TEIN   =    0.0    initial temperature
   TEBEG  =    0.0;   TEEND  =   0.0 temperature during run
   SMASS  =  -3.00    Nose mass-parameter (am)
   estimated Nose-frequenzy (Omega)   =  0.10E-29 period in steps =****** mass=  -0.914E-26a.u.
   SCALEE = 1.0000    scale energy and forces
   NPACO  =    256;   APACO  = 16.0  distance and # of slots for P.C.
   PSTRESS=    0.0 pullay stress

  Mass of Ions in am
   POMASS =  14.00 12.01
  Ionic Valenz
   ZVAL   =   5.00  4.00
  Atomic Wigner-Seitz radii
   RWIGS  =  -1.00 -1.00
  virtual crystal weights 
   VCA    =   1.00  1.00
   NELECT =     252.0000    total number of electrons
   NUPDOWN=      -1.0000    fix difference up-down

 DOS related values:
   EMIN   =  10.00;   EMAX   =-10.00  energy-range for DOS
   EFERMI =   0.00
   ISMEAR =     0;   SIGMA  =   0.20  broadening in eV -4-tet -1-fermi 0-gaus

 Electronic relaxation 2 (details)
   IALGO  =     38    algorithm
   LDIAG  =      T    sub-space diagonalisation (order eigenvalues)
   LSUBROT=      T    optimize rotation matrix (better conditioning)
   TURBO    =      0    0=normal 1=particle mesh
   IRESTART =      0    0=no restart 2=restart with 2 vectors
   NREBOOT  =      0    no. of reboots
   NMIN     =      0    reboot dimension
   EREF     =   0.00    reference energy to select bands
   IMIX   =      4    mixing-type and parameters
     AMIX     =   0.40;   BMIX     =  1.00
     AMIX_MAG =   1.60;   BMIX_MAG =  1.00
     AMIN     =   0.10
     WC   =   100.;   INIMIX=   1;  MIXPRE=   1

 Intra band minimization:
   WEIMIN = 0.0010     energy-eigenvalue tresh-hold
   EBREAK =  0.16E-06  absolut break condition
   DEPER  =   0.30     relativ break condition  

   TIME   =   0.40     timestep for ELM

  volume/ion in A,a.u.               =     133.33       899.78
  Fermi-wavevector in a.u.,A,eV,Ry     =   0.517025  0.977036  3.637042  0.267315
  Thomas-Fermi vector in A             =   1.533239
 
 Write flags
   LWAVE  =      F    write WAVECAR
   LCHARG =      F    write CHGCAR
   LVTOT  =      F    write LOCPOT, total local potential
   LVHAR  =      F    write LOCPOT, Hartree potential only
   LELF   =      F    write electronic localiz. function (ELF)
   LORBIT =      0    0 simple, 1 ext, 2 COOP (PROOUT)


 Dipole corrections
   LMONO  =      F    monopole corrections only (constant potential shift)
   LDIPOL =      F    correct potential (dipole corrections)
   IDIPOL =      0    1-x, 2-y, 3-z, 4-all directions 
   EPSILON=  1.0000000 bulk dielectric constant

 Exchange correlation treatment:
   GGA     =    --    GGA type
   LEXCH   =     8    internal setting for exchange type
   VOSKOWN=      0    Vosko Wilk Nusair interpolation
   LHFCALC =     F    Hartree Fock is set to
   LHFONE  =     F    Hartree Fock one center treatment
   AEXX    =    0.0000 exact exchange contribution

 Linear response parameters
   LEPSILON=     F    determine dielectric tensor
   LRPA    =     F    only Hartree local field effects (RPA)
   LNABLA  =     F    use nabla operator in PAW spheres
   LVEL    =     F    velocity operator in full k-point grid
   LINTERFAST=   F  fast interpolation
   KINTER  =     0    interpolate to denser k-point grid
   CSHIFT  =0.1000    complex shift for real part using Kramers Kronig
   OMEGAMAX=  -1.0    maximum frequency
   RTIME   =    0.100 relaxation time in fs

 Orbital magnetization related:
   ORBITALMAG=     F  switch on orbital magnetization
   LCHIMAG   =     F  perturbation theory with respect to B field
   DQ        =  0.001000  dq finite difference perturbation B field



--------------------------------------------------------------------------------------------------------


 conjugate gradient relaxation of ions
   using selective dynamics as specified on POSCAR
 charge density and potential will be updated during run
 non-spin polarized calculation
 Variant of blocked Davidson
 Davidson routine will perform the subspace rotation
 perform sub-space diagonalisation
    after iterative eigenvector-optimisation
 modified Broyden-mixing scheme, WC =      100.0
 initial mixing is a Kerker type mixing with AMIX =  0.4000 and BMIX =      1.0000
 Hartree-type preconditioning will be used
 using additional bands           34
 real space projection scheme for non local part
 use partial core corrections
 calculate Harris-corrections to forces 
   (improved forces if not selfconsistent)
 use gradient corrections 
 use of overlap-Matrix (Vanderbilt PP)
 Gauss-broadening in eV      SIGMA  =   0.20


--------------------------------------------------------------------------------------------------------


  energy-cutoff  :      520.00
  volume of cell :     8000.00
      direct lattice vectors                 reciprocal lattice vectors
    20.000000000  0.000000000  0.000000000     0.050000000  0.000000000  0.000000000
     0.000000000 20.000000000  0.000000000     0.000000000  0.050000000  0.000000000
     0.000000000  0.000000000 20.000000000     0.000000000  0.000000000  0.050000000

  length of vectors
    20.000000000 20.000000000 20.000000000     0.050000000  0.050000000  0.050000000


 
 k-points in units of 2pi/SCALE and weight: AUTO                                    
   0.00000000  0.00000000  0.00000000       1.000
 
 k-points in reciprocal lattice and weights: AUTO                                    
   0.00000000  0.00000000  0.00000000       1.000
 
 position of ions in fractional coordinates (direct lattice) 
   0.40069898  0.61539440  0.59156591
   0.32870105  0.53632625  0.52976038
   0.48160436  0.67415348  0.52975418
   0.43820940  0.50000000  0.66652764
   0.35185835  0.46502638  0.40842420
   0.48753194  0.65167482  0.40843123
   0.40069898  0.38460560  0.59156591
   0.51911736  0.55877799  0.33344897
   0.61721343  0.63004903  0.52976025
   0.64038705  0.55877891  0.40843144
   0.64814165  0.46502638  0.59157580
   0.58747606  0.34831420  0.47024962
   0.35961295  0.55877891  0.59156856
   0.38278657  0.63004903  0.47023975
   0.41252394  0.65168580  0.52975038
   0.34005895  0.57129154  0.47023862
   0.42098228  0.63005519  0.40843484
   0.46247967  0.61535003  0.62975505
   0.37871272  0.50000000  0.62973799
   0.35185835  0.53497362  0.40842420
   0.32870105  0.46367375  0.52976038
   0.51246806  0.65167482  0.59156877
   0.40189071  0.57127946  0.37025257
   0.35961295  0.44122109  0.59156856
   0.48088264  0.55877799  0.66655103
   0.51839564  0.67415348  0.47024582
   0.34005895  0.42870846  0.47023862
   0.45001194  0.53632576  0.33343239
   0.57901772  0.63005519  0.59156516
   0.54998806  0.53632576  0.66656761
   0.58747606  0.65168580  0.47024962
   0.53752033  0.61535003  0.37024495
   0.48088264  0.44122201  0.66655103
   0.40189071  0.42872054  0.37025257
   0.38278657  0.36995097  0.47023975
   0.59810929  0.57127946  0.62974743
   0.45001194  0.46367424  0.33343239
   0.46247967  0.38464997  0.62975505
   0.41252394  0.34831420  0.52975038
   0.54998806  0.46367424  0.66656761
   0.59930102  0.61539440  0.40843409
   0.42098228  0.36994481  0.40843484
   0.51911736  0.44122201  0.33344897
   0.65994105  0.57129154  0.52976138
   0.56179060  0.50000000  0.33347236
   0.48160436  0.32584652  0.52975418
   0.64814165  0.53497362  0.59157580
   0.51246806  0.34832518  0.59156877
   0.59810929  0.42872054  0.62974743
   0.48753194  0.34832518  0.40843123
   0.53752033  0.38464997  0.37024495
   0.67129895  0.53632625  0.47023962
   0.57901772  0.36994481  0.59156516
   0.62128728  0.50000000  0.37026201
   0.51839564  0.32584652  0.47024582
   0.64038705  0.44122109  0.40843144
   0.65994105  0.42870846  0.52976138
   0.61721343  0.36995097  0.52976025
   0.59930102  0.38460560  0.40843409
   0.67129895  0.46367375  0.47023962
 
 position of ions in cartesian coordinates  (Angst):
   8.01397969 12.30788792 11.83131816
   6.57402107 10.72652505 10.59520755
   9.63208713 13.48306953 10.59508361
   8.76418800 10.00000000 13.33055274
   7.03716696  9.30052768  8.16848406
   9.75063885 13.03349632  8.16862454
   8.01397969  7.69211208 11.83131816
  10.38234727 11.17555970  6.66897934
  12.34426854 12.60098068 10.59520493
  12.80774101 11.17557824  8.16862877
  12.96283304  9.30052768 11.83151594
  11.74952129  6.96628404  9.40499243
   7.19225899 11.17557824 11.83137123
   7.65573146 12.60098068  9.40479507
   8.25047871 13.03371596 10.59500757
   6.80117906 11.42583079  9.40477249
   8.41964559 12.60110390  8.16869677
   9.24959341 12.30700053 12.59510097
   7.57425444 10.00000000 12.59475980
   7.03716696 10.69947232  8.16848406
   6.57402107  9.27347495 10.59520755
  10.24936115 13.03349632 11.83137546
   8.03781418 11.42558919  7.40505143
   7.19225899  8.82442176 11.83137123
   9.61765273 11.17555970 13.33102066
  10.36791287 13.48306953  9.40491639
   6.80117906  8.57416921  9.40477249
   9.00023890 10.72651523  6.66864776
  11.58035441 12.60110390 11.83130323
  10.99976110 10.72651523 13.33135224
  11.74952129 13.03371596  9.40499243
  10.75040659 12.30700053  7.40489903
   9.61765273  8.82444030 13.33102066
   8.03781418  8.57441081  7.40505143
   7.65573146  7.39901932  9.40479507
  11.96218582 11.42558919 12.59494857
   9.00023890  9.27348477  6.66864776
   9.24959341  7.69299947 12.59510097
   8.25047871  6.96628404 10.59500757
  10.99976110  9.27348477 13.33135224
  11.98602031 12.30788792  8.16868184
   8.41964559  7.39889610  8.16869677
  10.38234727  8.82444030  6.66897934
  13.19882094 11.42583079 10.59522751
  11.23581200 10.00000000  6.66944726
   9.63208713  6.51693047 10.59508361
  12.96283304 10.69947232 11.83151594
  10.24936115  6.96650368 11.83137546
  11.96218582  8.57441081 12.59494857
   9.75063885  6.96650368  8.16862454
  10.75040659  7.69299947  7.40489903
  13.42597893 10.72652505  9.40479245
  11.58035441  7.39889610 11.83130323
  12.42574556 10.00000000  7.40524020
  10.36791287  6.51693047  9.40491639
  12.80774101  8.82442176  8.16862877
  13.19882094  8.57416921 10.59522751
  12.34426854  7.39901932 10.59520493
  11.98602031  7.69211208  8.16868184
  13.42597893  9.27347495  9.40479245
 


--------------------------------------------------------------------------------------------------------


 k-point  1 :  0.00000.00000.0000  plane waves:  215503

 maximum and minimum number of plane-waves per node :     35931    35903

 maximum number of plane-waves:    215503
 maximum index in each direction: 
   IXMAX=   37   IYMAX=   37   IZMAX=   37
   IXMIN=  -37   IYMIN=  -37   IZMIN=  -37

 WARNING: aliasing errors must be expected set NGX to 150 to avoid them
 WARNING: aliasing errors must be expected set NGY to 150 to avoid them
 WARNING: aliasing errors must be expected set NGZ to 150 to avoid them
 aliasing errors are usually negligible using standard VASP settings
 and one can safely disregard these warnings

 real space projection operators:
  total allocation   :       3479.00 KBytes
  max/ min on nodes  :        584.94        576.25


 parallel 3D FFT for wavefunctions:
    minimum data exchange during FFTs selected (reduces bandwidth)
 parallel 3D FFT for charge:
    minimum data exchange during FFTs selected (reduces bandwidth)


 total amount of memory used by VASP on root node   117117. kBytes
========================================================================

   base      :      30000. kBytes
   nonlr-proj:       2180. kBytes
   fftplans  :      24017. kBytes
   grid      :      37845. kBytes
   one-center:         30. kBytes
   wavefun   :      23045. kBytes
 
 Broyden mixing: mesh for mixing (old mesh)
   NGX = 75   NGY = 75   NGZ = 75
  (NGX  =224   NGY  =224   NGZ  =224)
  gives a total of 421875 points

 initial charge density was supplied:
 charge density of overlapping atoms calculated
 number of electron     252.0000000 magnetization 
 keeping initial charge density in first step


--------------------------------------------------------------------------------------------------------


 Maximum index for non-local projection operator          245
 Maximum index for augmentation-charges          196 (set IRDMAX)


--------------------------------------------------------------------------------------------------------


 First call to EWALD:  gamma=   0.089
 Maximum number of real-space cells 3x 3x 3
 Maximum number of reciprocal cells 3x 3x 3

    FEWALD:  cpu time    0.02: real time    0.02


----------------------------------------- Iteration    1(   1)  ---------------------------------------


    POTLOK:  cpu time    0.69: real time    0.70
    SETDIJ:  cpu time    0.01: real time    0.02
     EDDAV:  cpu time    8.17: real time    8.42
       DOS:  cpu time    0.00: real time    0.00
    --------------------------------------------
      LOOP:  cpu time    8.87: real time    9.15

 eigenvalue-minimisations  :   384
 total energy-change (2. order) : 0.2681253E+04  (-0.7248768E+04)
 number of electron     252.0000000 magnetization 
 augmentation part      252.0000000 magnetization 

 Free energy of the ion-electron system (eV)
  ---------------------------------------------------
  alpha Z        PSCENC =        39.19705474
  Ewald energy   TEWEN  =     49066.37118726
  -1/2 Hartree   DENC   =    -56411.22875892
  -exchange  EXHF       =         0.00000000
  -V(xc)+E(xc)   XCENC  =       871.54569449
  PAW double counting   =      7668.25100558    -7709.87429350
  entropy T*S    EENTRO =        -0.74077132
  eigenvalues    EBANDS =     -1079.84750529
  atomic energy  EATOM  =     10237.57972351
  ---------------------------------------------------
  free energy    TOTEN  =      2681.25333655 eV

  energy without entropy =     2681.99410787  energy(sigma->0) =     2681.62372221


--------------------------------------------------------------------------------------------------------




----------------------------------------- Iteration    1(   2)  ---------------------------------------


     EDDAV:  cpu time   10.13: real time   10.18
       DOS:  cpu time    0.00: real time    0.00
    --------------------------------------------
      LOOP:  cpu time   10.13: real time   10.20

 eigenvalue-minimisations  :   504
 total energy-change (2. order) :-0.2191520E+04  (-0.2022774E+04)
 number of electron     252.0000000 magnetization 
 augmentation part      252.0000000 magnetization 

 Free energy of the ion-electron system (eV)
  ---------------------------------------------------
  alpha Z        PSCENC =        39.19705474
  Ewald energy   TEWEN  =     49066.37118726
  -1/2 Hartree   DENC   =    -56411.22875892
  -exchange  EXHF       =         0.00000000
  -V(xc)+E(xc)   XCENC  =       871.54569449
  PAW double counting   =      7668.25100558    -7709.87429350
  entropy T*S    EENTRO =        -0.35152276
  eigenvalues    EBANDS =     -3271.75711750
  atomic energy  EATOM  =     10237.57972351
  ---------------------------------------------------
  free energy    TOTEN  =       489.73297289 eV

  energy without entropy =      490.08449565  energy(sigma->0) =      489.90873427


--------------------------------------------------------------------------------------------------------




----------------------------------------- Iteration    1(   3)  ---------------------------------------


     EDDAV:  cpu time    8.75: real time    8.78
       DOS:  cpu time    0.00: real time    0.00
    --------------------------------------------
      LOOP:  cpu time    8.75: real time    8.79

 eigenvalue-minimisations  :   416
 total energy-change (2. order) :-0.9298911E+03  (-0.9111438E+03)
 number of electron     252.0000000 magnetization 
 augmentation part      252.0000000 magnetization 

 Free energy of the ion-electron system (eV)
  ---------------------------------------------------
  alpha Z        PSCENC =        39.19705474
  Ewald energy   TEWEN  =     49066.37118726
  -1/2 Hartree   DENC   =    -56411.22875892
  -exchange  EXHF       =         0.00000000
  -V(xc)+E(xc)   XCENC  =       871.54569449
  PAW double counting   =      7668.25100558    -7709.87429350
  entropy T*S    EENTRO =        -0.09799724
  eigenvalues    EBANDS =     -4201.90175577
  atomic energy  EATOM  =     10237.57972351
  ---------------------------------------------------
  free energy    TOTEN  =      -440.15813985 eV

  energy without entropy =     -440.06014262  energy(sigma->0) =     -440.10914123


--------------------------------------------------------------------------------------------------------




----------------------------------------- Iteration    1(   4)  ---------------------------------------


     EDDAV:  cpu time    8.33: real time    8.38
       DOS:  cpu time    0.00: real time    0.00
    --------------------------------------------
      LOOP:  cpu time    8.34: real time    8.40

 eigenvalue-minimisations  :   392
 total energy-change (2. order) :-0.9758483E+02  (-0.9567380E+02)
 number of electron     252.0000000 magnetization 
 augmentation part      252.0000000 magnetization 

 Free energy of the ion-electron system (eV)
  ---------------------------------------------------
  alpha Z        PSCENC =        39.19705474
  Ewald energy   TEWEN  =     49066.37118726
  -1/2 Hartree   DENC   =    -56411.22875892
  -exchange  EXHF       =         0.00000000
  -V(xc)+E(xc)   XCENC  =       871.54569449
  PAW double counting   =      7668.25100558    -7709.87429350
  entropy T*S    EENTRO =        -0.04474674
  eigenvalues    EBANDS =     -4299.53984053
  atomic energy  EATOM  =     10237.57972351
  ---------------------------------------------------
  free energy    TOTEN  =      -537.74297411 eV

  energy without entropy =     -537.69822737  energy(sigma->0) =     -537.72060074


--------------------------------------------------------------------------------------------------------




----------------------------------------- Iteration    1(   5)  ---------------------------------------


     EDDAV:  cpu time    9.28: real time    9.31
       DOS:  cpu time    0.00: real time    0.00
    CHARGE:  cpu time    0.61: real time    0.62
    MIXING:  cpu time    0.02: real time    0.03
    --------------------------------------------
      LOOP:  cpu time    9.91: real time    9.98

 eigenvalue-minimisations  :   448
 total energy-change (2. order) :-0.4417798E+01  (-0.3967228E+01)
 number of electron     251.9999933 magnetization 
 augmentation part        8.0944184 magnetization 

 Broyden mixing:
  rms(total) = 0.32278E+01    rms(broyden)= 0.32269E+01
  rms(prec ) = 0.34608E+01
  weight for this iteration     100.00

 Free energy of the ion-electron system (eV)
  ---------------------------------------------------
  alpha Z        PSCENC =        39.19705474
  Ewald energy   TEWEN  =     49066.37118726
  -1/2 Hartree   DENC   =    -56411.22875892
  -exchange  EXHF       =         0.00000000
  -V(xc)+E(xc)   XCENC  =       871.54569449
  PAW double counting   =      7668.25100558    -7709.87429350
  entropy T*S    EENTRO =        -0.08048375
  eigenvalues    EBANDS =     -4303.92190175
  atomic energy  EATOM  =     10237.57972351
  ---------------------------------------------------
  free energy    TOTEN  =      -542.16077234 eV

  energy without entropy =     -542.08028859  energy(sigma->0) =     -542.12053047


--------------------------------------------------------------------------------------------------------




----------------------------------------- Iteration    1(   6)  ---------------------------------------


    POTLOK:  cpu time    0.62: real time    0.62
    SETDIJ:  cpu time    0.01: real time    0.01
     EDDAV:  cpu time    8.29: real time    8.32
       DOS:  cpu time    0.00: real time    0.00
    CHARGE:  cpu time    0.60: real time    0.60
    MIXING:  cpu time    0.02: real time    0.04
    --------------------------------------------
      LOOP:  cpu time    9.55: real time    9.61

 eigenvalue-minimisations  :   392
 total energy-change (2. order) : 0.2270400E+02  (-0.3145013E+01)
 number of electron     251.9999937 magnetization 
 augmentation part        7.7685968 magnetization 

 Broyden mixing:
  rms(total) = 0.18819E+01    rms(broyden)= 0.18819E+01
  rms(prec ) = 0.19847E+01
  weight for this iteration     100.00

 eigenvalues of (default mixing * dielectric matrix)
  average eigenvalue GAMMA=   1.9249
  1.9249

 Free energy of the ion-electron system (eV)
  ---------------------------------------------------
  alpha Z        PSCENC =        39.19705474
  Ewald energy   TEWEN  =     49066.37118726
  -1/2 Hartree   DENC   =    -56729.07212539
  -exchange  EXHF       =         0.00000000
  -V(xc)+E(xc)   XCENC  =       884.45755583
  PAW double counting   =     12954.86305570   -13001.26252048
  entropy T*S    EENTRO =        -0.25292508
  eigenvalues    EBANDS =     -3971.33777599
  atomic energy  EATOM  =     10237.57972351
  ---------------------------------------------------
  free energy    TOTEN  =      -519.45676990 eV

  energy without entropy =     -519.20384482  energy(sigma->0) =     -519.33030736


--------------------------------------------------------------------------------------------------------




----------------------------------------- Iteration    1(   7)  ---------------------------------------


    POTLOK:  cpu time    0.62: real time    0.62
    SETDIJ:  cpu time    0.01: real time    0.01
     EDDAV:  cpu time    8.15: real time    8.19
       DOS:  cpu time    0.00: real time    0.00
    CHARGE:  cpu time    0.61: real time    0.61
    MIXING:  cpu time    0.02: real time    0.03
    --------------------------------------------
      LOOP:  cpu time    9.42: real time    9.48

 eigenvalue-minimisations  :   384
 total energy-change (2. order) : 0.6001629E+01  (-0.2873231E+01)
 number of electron     251.9999940 magnetization 
 augmentation part        7.4760137 magnetization 

 Broyden mixing:
  rms(total) = 0.73587E+00    rms(broyden)= 0.73575E+00
  rms(prec ) = 0.78855E+00
  weight for this iteration     100.00

 eigenvalues of (default mixing * dielectric matrix)
  average eigenvalue GAMMA=   1.4885
  0.7913  2.1858

 Free energy of the ion-electron system (eV)
  ---------------------------------------------------
  alpha Z        PSCENC =        39.19705474
  Ewald energy   TEWEN  =     49066.37118726
  -1/2 Hartree   DENC   =    -57055.04584516
  -exchange  EXHF       =         0.00000000
  -V(xc)+E(xc)   XCENC  =       898.24513951
  PAW double counting   =     20658.07298053   -20708.47438299
  entropy T*S    EENTRO =        -0.10831213
  eigenvalues    EBANDS =     -3649.29268568
  atomic energy  EATOM  =     10237.57972351
  ---------------------------------------------------
  free energy    TOTEN  =      -513.45514041 eV

  energy without entropy =     -513.34682828  energy(sigma->0) =     -513.40098435


--------------------------------------------------------------------------------------------------------




----------------------------------------- Iteration    1(   8)  ---------------------------------------


    POTLOK:  cpu time    0.62: real time    0.63
    SETDIJ:  cpu time    0.01: real time    0.01
     EDDAV:  cpu time    8.17: real time    8.21
       DOS:  cpu time    0.00: real time    0.00
    CHARGE:  cpu time    0.61: real time    0.61
    MIXING:  cpu time    0.02: real time    0.02
    --------------------------------------------
      LOOP:  cpu time    9.43: real time    9.50

 eigenvalue-minimisations  :   384
 total energy-change (2. order) : 0.3909401E+00  (-0.3047196E+00)
 number of electron     251.9999940 magnetization 
 augmentation part        7.4283670 magnetization 

 Broyden mixing:
  rms(total) = 0.36886E+00    rms(broyden)= 0.36881E+00
  rms(prec ) = 0.38157E+00
  weight for this iteration     100.00

 eigenvalues of (default mixing * dielectric matrix)
  average eigenvalue GAMMA=   1.5314
  2.3412  1.5175  0.7354

 Free energy of the ion-electron system (eV)
  ---------------------------------------------------
  alpha Z        PSCENC =        39.19705474
  Ewald energy   TEWEN  =     49066.37118726
  -1/2 Hartree   DENC   =    -57119.82519942
  -exchange  EXHF       =         0.00000000
  -V(xc)+E(xc)   XCENC  =       900.70572960
  PAW double counting   =     23146.52668335   -23197.25762449
  entropy T*S    EENTRO =        -0.22834439
  eigenvalues    EBANDS =     -3586.13341044
  atomic energy  EATOM  =     10237.57972351
  ---------------------------------------------------
  free energy    TOTEN  =      -513.06420028 eV

  energy without entropy =     -512.83585589  energy(sigma->0) =     -512.95002809


--------------------------------------------------------------------------------------------------------




----------------------------------------- Iteration    1(   9)  ---------------------------------------


    POTLOK:  cpu time    0.63: real time    0.63
    SETDIJ:  cpu time    0.01: real time    0.01
     EDDAV:  cpu time    8.16: real time    8.23
       DOS:  cpu time    0.00: real time    0.00
    CHARGE:  cpu time    0.60: real time    0.61
    MIXING:  cpu time    0.02: real time    0.02
    --------------------------------------------
      LOOP:  cpu time    9.43: real time    9.52

 eigenvalue-minimisations  :   384
 total energy-change (2. order) : 0.2826272E-01  (-0.6252474E-01)
 number of electron     251.9999940 magnetization 
 augmentation part        7.4227901 magnetization 

 Broyden mixing:
  rms(total) = 0.13956E+00    rms(broyden)= 0.13953E+00
  rms(prec ) = 0.15428E+00
  weight for this iteration     100.00

 eigenvalues of (default mixing * dielectric matrix)
  average eigenvalue GAMMA=   1.4755
  2.3799  1.9107  0.8058  0.8058

 Free energy of the ion-electron system (eV)
  ---------------------------------------------------
  alpha Z        PSCENC =        39.19705474
  Ewald energy   TEWEN  =     49066.37118726
  -1/2 Hartree   DENC   =    -57145.49828259
  -exchange  EXHF       =         0.00000000
  -V(xc)+E(xc)   XCENC  =       901.15346016
  PAW double counting   =     24575.72365281   -24626.01872087
  entropy T*S    EENTRO =        -0.24161802
  eigenvalues    EBANDS =     -3561.30239456
  atomic energy  EATOM  =     10237.57972351
  ---------------------------------------------------
  free energy    TOTEN  =      -513.03593756 eV

  energy without entropy =     -512.79431955  energy(sigma->0) =     -512.91512856


--------------------------------------------------------------------------------------------------------




----------------------------------------- Iteration    1(  10)  ---------------------------------------


    POTLOK:  cpu time    0.63: real time    0.63
    SETDIJ:  cpu time    0.01: real time    0.01
     EDDAV:  cpu time    8.32: real time    8.35
       DOS:  cpu time    0.00: real time    0.00
    CHARGE:  cpu time    0.60: real time    0.61
    MIXING:  cpu time    0.02: real time    0.02
    --------------------------------------------
      LOOP:  cpu time    9.59: real time    9.64

 eigenvalue-minimisations  :   392
 total energy-change (2. order) : 0.1946951E-01  (-0.1033223E-01)
 number of electron     251.9999940 magnetization 
 augmentation part        7.4268100 magnetization 

 Broyden mixing:
  rms(total) = 0.49422E-01    rms(broyden)= 0.49402E-01
  rms(prec ) = 0.65366E-01
  weight for this iteration     100.00

 eigenvalues of (default mixing * dielectric matrix)
  average eigenvalue GAMMA=   1.3997
  2.3667  2.0242  0.9910  0.8084  0.8084

 Free energy of the ion-electron system (eV)
  ---------------------------------------------------
  alpha Z        PSCENC =        39.19705474
  Ewald energy   TEWEN  =     49066.37118726
  -1/2 Hartree   DENC   =    -57159.09689456
  -exchange  EXHF       =         0.00000000
  -V(xc)+E(xc)   XCENC  =       901.15161615
  PAW double counting   =     24942.46411118   -24992.49913947
  entropy T*S    EENTRO =        -0.21768698
  eigenvalues    EBANDS =     -3547.96643987
  atomic energy  EATOM  =     10237.57972351
  ---------------------------------------------------
  free energy    TOTEN  =      -513.01646805 eV

  energy without entropy =     -512.79878107  energy(sigma->0) =     -512.90762456


--------------------------------------------------------------------------------------------------------




----------------------------------------- Iteration    1(  11)  ---------------------------------------


    POTLOK:  cpu time    0.63: real time    0.64
    SETDIJ:  cpu time    0.00: real time    0.01
     EDDAV:  cpu time    7.98: real time    8.02
       DOS:  cpu time    0.00: real time    0.00
    CHARGE:  cpu time    0.62: real time    0.62
    MIXING:  cpu time    0.02: real time    0.02
    --------------------------------------------
      LOOP:  cpu time    9.27: real time    9.33

 eigenvalue-minimisations  :   376
 total energy-change (2. order) : 0.2014948E-02  (-0.2579714E-02)
 number of electron     251.9999940 magnetization 
 augmentation part        7.4261133 magnetization 

 Broyden mixing:
  rms(total) = 0.22867E-01    rms(broyden)= 0.22862E-01
  rms(prec ) = 0.38406E-01
  weight for this iteration     100.00

 eigenvalues of (default mixing * dielectric matrix)
  average eigenvalue GAMMA=   1.3564
  2.2168  2.2168  1.1045  1.1045  0.7480  0.7480

 Free energy of the ion-electron system (eV)
  ---------------------------------------------------
  alpha Z        PSCENC =        39.19705474
  Ewald energy   TEWEN  =     49066.37118726
  -1/2 Hartree   DENC   =    -57170.81788458
  -exchange  EXHF       =         0.00000000
  -V(xc)+E(xc)   XCENC  =       901.22828202
  PAW double counting   =     24999.42058022   -25049.39201627
  entropy T*S    EENTRO =        -0.22873587
  eigenvalues    EBANDS =     -3536.37264413
  atomic energy  EATOM  =     10237.57972351
  ---------------------------------------------------
  free energy    TOTEN  =      -513.01445310 eV

  energy without entropy =     -512.78571723  energy(sigma->0) =     -512.90008517


--------------------------------------------------------------------------------------------------------




----------------------------------------- Iteration    1(  12)  ---------------------------------------


    POTLOK:  cpu time    0.63: real time    0.64
    SETDIJ:  cpu time    0.01: real time    0.01
     EDDAV:  cpu time    7.84: real time    7.91
       DOS:  cpu time    0.00: real time    0.00
    CHARGE:  cpu time    0.60: real time    0.60
    MIXING:  cpu time    0.02: real time    0.02
    --------------------------------------------
      LOOP:  cpu time    9.11: real time    9.21

 eigenvalue-minimisations  :   368
 total energy-change (2. order) :-0.1172851E-02  (-0.5443395E-03)
 number of electron     251.9999940 magnetization 
 augmentation part        7.4258251 magnetization 

 Broyden mixing:
  rms(total) = 0.15711E-01    rms(broyden)= 0.15709E-01
  rms(prec ) = 0.29618E-01
  weight for this iteration     100.00

 eigenvalues of (default mixing * dielectric matrix)
  average eigenvalue GAMMA=   1.3647
  2.2822  2.2822  1.3472  1.3472  0.7706  0.7706  0.7532

 Free energy of the ion-electron system (eV)
  ---------------------------------------------------
  alpha Z        PSCENC =        39.19705474
  Ewald energy   TEWEN  =     49066.37118726
  -1/2 Hartree   DENC   =    -57181.36389683
  -exchange  EXHF       =         0.00000000
  -V(xc)+E(xc)   XCENC  =       901.31245503
  PAW double counting   =     24980.44855606   -25030.40142643
  entropy T*S    EENTRO =        -0.22795784
  eigenvalues    EBANDS =     -3525.93132144
  atomic energy  EATOM  =     10237.57972351
  ---------------------------------------------------
  free energy    TOTEN  =      -513.01562595 eV

  energy without entropy =     -512.78766811  energy(sigma->0) =     -512.90164703


--------------------------------------------------------------------------------------------------------




----------------------------------------- Iteration    1(  13)  ---------------------------------------


    POTLOK:  cpu time    0.63: real time    0.68
    SETDIJ:  cpu time    0.01: real time    0.01
     EDDAV:  cpu time    7.87: real time    7.90
       DOS:  cpu time    0.00: real time    0.00
    CHARGE:  cpu time    0.60: real time    0.60
    MIXING:  cpu time    0.02: real time    0.02
    --------------------------------------------
      LOOP:  cpu time    9.14: real time    9.25

 eigenvalue-minimisations  :   368
 total energy-change (2. order) :-0.3564581E-02  (-0.3545287E-03)
 number of electron     251.9999940 magnetization 
 augmentation part        7.4243052 magnetization 

 Broyden mixing:
  rms(total) = 0.86504E-02    rms(broyden)= 0.86491E-02
  rms(prec ) = 0.19631E-01
  weight for this iteration     100.00

 eigenvalues of (default mixing * dielectric matrix)
  average eigenvalue GAMMA=   1.4600
  2.6552  2.6552  1.8364  1.0979  1.0979  0.7930  0.7930  0.7511

 Free energy of the ion-electron system (eV)
  ---------------------------------------------------
  alpha Z        PSCENC =        39.19705474
  Ewald energy   TEWEN  =     49066.37118726
  -1/2 Hartree   DENC   =    -57197.19652058
  -exchange  EXHF       =         0.00000000
  -V(xc)+E(xc)   XCENC  =       901.45199420
  PAW double counting   =     24944.61521446   -24994.55604655
  entropy T*S    EENTRO =        -0.22667583
  eigenvalues    EBANDS =     -3510.25512173
  atomic energy  EATOM  =     10237.57972351
  ---------------------------------------------------
  free energy    TOTEN  =      -513.01919053 eV

  energy without entropy =     -512.79251470  energy(sigma->0) =     -512.90585262


--------------------------------------------------------------------------------------------------------




----------------------------------------- Iteration    1(  14)  ---------------------------------------


    POTLOK:  cpu time    0.64: real time    0.64
    SETDIJ:  cpu time    0.01: real time    0.01
     EDDAV:  cpu time    8.06: real time    8.09
       DOS:  cpu time    0.00: real time    0.00
    CHARGE:  cpu time    0.61: real time    0.61
    MIXING:  cpu time    0.03: real time    0.03
    --------------------------------------------
      LOOP:  cpu time    9.34: real time    9.39

 eigenvalue-minimisations  :   376
 total energy-change (2. order) :-0.6601964E-02  (-0.3249295E-03)
 number of electron     251.9999940 magnetization 
 augmentation part        7.4220955 magnetization 

 Broyden mixing:
  rms(total) = 0.63122E-02    rms(broyden)= 0.63111E-02
  rms(prec ) = 0.11884E-01
  weight for this iteration     100.00

 eigenvalues of (default mixing * dielectric matrix)
  average eigenvalue GAMMA=   1.5099
  3.3777  2.5258  1.7978  1.3335  1.1154  1.1154  0.7895  0.7895  0.7446

 Free energy of the ion-electron system (eV)
  ---------------------------------------------------
  alpha Z        PSCENC =        39.19705474
  Ewald energy   TEWEN  =     49066.37118726
  -1/2 Hartree   DENC   =    -57214.86991007
  -exchange  EXHF       =         0.00000000
  -V(xc)+E(xc)   XCENC  =       901.60681696
  PAW double counting   =     24929.22451344   -24979.15758135
  entropy T*S    EENTRO =        -0.22793979
  eigenvalues    EBANDS =     -3492.74965719
  atomic energy  EATOM  =     10237.57972351
  ---------------------------------------------------
  free energy    TOTEN  =      -513.02579250 eV

  energy without entropy =     -512.79785271  energy(sigma->0) =     -512.91182260


--------------------------------------------------------------------------------------------------------




----------------------------------------- Iteration    1(  15)  ---------------------------------------


    POTLOK:  cpu time    0.64: real time    0.65
    SETDIJ:  cpu time    0.01: real time    0.01
     EDDAV:  cpu time    7.09: real time    7.11
       DOS:  cpu time    0.00: real time    0.00
    CHARGE:  cpu time    0.61: real time    0.61
    MIXING:  cpu time    0.03: real time    0.03
    --------------------------------------------
      LOOP:  cpu time    8.38: real time    8.42

 eigenvalue-minimisations  :   320
 total energy-change (2. order) :-0.4213360E-02  (-0.1109935E-03)
 number of electron     251.9999940 magnetization 
 augmentation part        7.4213019 magnetization 

 Broyden mixing:
  rms(total) = 0.44060E-02    rms(broyden)= 0.44054E-02
  rms(prec ) = 0.77191E-02
  weight for this iteration     100.00

 eigenvalues of (default mixing * dielectric matrix)
  average eigenvalue GAMMA=   1.6351
  4.3994  2.4285  2.0614  2.0614  1.0716  1.0716  0.9790  0.7736  0.7736  0.7307

 Free energy of the ion-electron system (eV)
  ---------------------------------------------------
  alpha Z        PSCENC =        39.19705474
  Ewald energy   TEWEN  =     49066.37118726
  -1/2 Hartree   DENC   =    -57224.31175495
  -exchange  EXHF       =         0.00000000
  -V(xc)+E(xc)   XCENC  =       901.66306032
  PAW double counting   =     24928.96485948   -24978.89257944
  entropy T*S    EENTRO =        -0.22715722
  eigenvalues    EBANDS =     -3483.37439955
  atomic energy  EATOM  =     10237.57972351
  ---------------------------------------------------
  free energy    TOTEN  =      -513.03000586 eV

  energy without entropy =     -512.80284864  energy(sigma->0) =     -512.91642725


--------------------------------------------------------------------------------------------------------




----------------------------------------- Iteration    1(  16)  ---------------------------------------


    POTLOK:  cpu time    0.64: real time    0.64
    SETDIJ:  cpu time    0.01: real time    0.01
     EDDAV:  cpu time    6.84: real time    6.85
       DOS:  cpu time    0.00: real time    0.00
    CHARGE:  cpu time    0.61: real time    0.61
    MIXING:  cpu time    0.03: real time    0.03
    --------------------------------------------
      LOOP:  cpu time    8.12: real time    8.16

 eigenvalue-minimisations  :   304
 total energy-change (2. order) :-0.4035181E-02  (-0.7840419E-04)
 number of electron     251.9999940 magnetization 
 augmentation part        7.4207785 magnetization 

 Broyden mixing:
  rms(total) = 0.20812E-02    rms(broyden)= 0.20807E-02
  rms(prec ) = 0.39295E-02
  weight for this iteration     100.00

 eigenvalues of (default mixing * dielectric matrix)
  average eigenvalue GAMMA=   1.7285
  5.5999  2.4781  2.4781  1.9463  1.1210  1.1210  1.0844  0.7749  0.7749  0.9046
  0.7306

 Free energy of the ion-electron system (eV)
  ---------------------------------------------------
  alpha Z        PSCENC =        39.19705474
  Ewald energy   TEWEN  =     49066.37118726
  -1/2 Hartree   DENC   =    -57231.35292971
  -exchange  EXHF       =         0.00000000
  -V(xc)+E(xc)   XCENC  =       901.68488594
  PAW double counting   =     24926.95150906   -24976.87845928
  entropy T*S    EENTRO =        -0.22761461
  eigenvalues    EBANDS =     -3476.35939795
  atomic energy  EATOM  =     10237.57972351
  ---------------------------------------------------
  free energy    TOTEN  =      -513.03404104 eV

  energy without entropy =     -512.80642643  energy(sigma->0) =     -512.92023373


--------------------------------------------------------------------------------------------------------




----------------------------------------- Iteration    1(  17)  ---------------------------------------


    POTLOK:  cpu time    0.63: real time    0.64
    SETDIJ:  cpu time    0.01: real time    0.01
     EDDAV:  cpu time    6.75: real time    6.77
       DOS:  cpu time    0.00: real time    0.00
    CHARGE:  cpu time    0.60: real time    0.61
    MIXING:  cpu time    0.03: real time    0.03
    --------------------------------------------
      LOOP:  cpu time    8.02: real time    8.07

 eigenvalue-minimisations  :   296
 total energy-change (2. order) :-0.3315683E-02  (-0.2037123E-04)
 number of electron     251.9999940 magnetization 
 augmentation part        7.4206440 magnetization 

 Broyden mixing:
  rms(total) = 0.15213E-02    rms(broyden)= 0.15211E-02
  rms(prec ) = 0.25365E-02
  weight for this iteration     100.00

 eigenvalues of (default mixing * dielectric matrix)
  average eigenvalue GAMMA=   1.7918
  6.2731  2.7752  2.3676  1.9479  1.7297  1.0751  1.0751  1.1051  0.7717  0.7717
  0.8792  0.7304

 Free energy of the ion-electron system (eV)
  ---------------------------------------------------
  alpha Z        PSCENC =        39.19705474
  Ewald energy   TEWEN  =     49066.37118726
  -1/2 Hartree   DENC   =    -57234.00030310
  -exchange  EXHF       =         0.00000000
  -V(xc)+E(xc)   XCENC  =       901.68274395
  PAW double counting   =     24924.63388983   -24974.56134864
  entropy T*S    EENTRO =        -0.22761622
  eigenvalues    EBANDS =     -3473.71268804
  atomic energy  EATOM  =     10237.57972351
  ---------------------------------------------------
  free energy    TOTEN  =      -513.03735672 eV

  energy without entropy =     -512.80974050  energy(sigma->0) =     -512.92354861


--------------------------------------------------------------------------------------------------------




----------------------------------------- Iteration    1(  18)  ---------------------------------------


    POTLOK:  cpu time    0.63: real time    0.64
    SETDIJ:  cpu time    0.01: real time    0.01
     EDDAV:  cpu time    6.31: real time    6.32
       DOS:  cpu time    0.00: real time    0.00
    CHARGE:  cpu time    0.60: real time    0.61
    MIXING:  cpu time    0.03: real time    0.03
    --------------------------------------------
      LOOP:  cpu time    7.59: real time    7.63

 eigenvalue-minimisations  :   272
 total energy-change (2. order) :-0.3066963E-02  (-0.1861675E-04)
 number of electron     251.9999940 magnetization 
 augmentation part        7.4206395 magnetization 

 Broyden mixing:
  rms(total) = 0.87698E-03    rms(broyden)= 0.87693E-03
  rms(prec ) = 0.15080E-02
  weight for this iteration     100.00

 eigenvalues of (default mixing * dielectric matrix)
  average eigenvalue GAMMA=   1.8836
  7.0955  3.2743  2.3700  2.3700  1.9051  1.1208  1.1208  1.1834  0.7736  0.7736
  0.8865  0.8865  0.7262

 Free energy of the ion-electron system (eV)
  ---------------------------------------------------
  alpha Z        PSCENC =        39.19705474
  Ewald energy   TEWEN  =     49066.37118726
  -1/2 Hartree   DENC   =    -57234.81863445
  -exchange  EXHF       =         0.00000000
  -V(xc)+E(xc)   XCENC  =       901.67242909
  PAW double counting   =     24924.98950499   -24974.91655852
  entropy T*S    EENTRO =        -0.22767155
  eigenvalues    EBANDS =     -3472.88745874
  atomic energy  EATOM  =     10237.57972351
  ---------------------------------------------------
  free energy    TOTEN  =      -513.04042368 eV

  energy without entropy =     -512.81275213  energy(sigma->0) =     -512.92658791


--------------------------------------------------------------------------------------------------------




----------------------------------------- Iteration    1(  19)  ---------------------------------------


    POTLOK:  cpu time    0.63: real time    0.64
    SETDIJ:  cpu time    0.01: real time    0.01
     EDDAV:  cpu time    6.19: real time    6.20
       DOS:  cpu time    0.00: real time    0.00
    CHARGE:  cpu time    0.60: real time    0.61
    MIXING:  cpu time    0.03: real time    0.03
    --------------------------------------------
      LOOP:  cpu time    7.47: real time    7.50

 eigenvalue-minimisations  :   264
 total energy-change (2. order) :-0.1805152E-02  (-0.1053407E-04)
 number of electron     251.9999940 magnetization 
 augmentation part        7.4206385 magnetization 

 Broyden mixing:
  rms(total) = 0.50968E-03    rms(broyden)= 0.50957E-03
  rms(prec ) = 0.88283E-03
  weight for this iteration     100.00

 eigenvalues of (default mixing * dielectric matrix)
  average eigenvalue GAMMA=   1.8997
  7.5712  3.6208  2.3557  2.3557  1.9415  1.3929  1.1058  1.1058  1.1148  0.7736
  0.7736  0.7263  0.9016  0.8572

 Free energy of the ion-electron system (eV)
  ---------------------------------------------------
  alpha Z        PSCENC =        39.19705474
  Ewald energy   TEWEN  =     49066.37118726
  -1/2 Hartree   DENC   =    -57235.14995433
  -exchange  EXHF       =         0.00000000
  -V(xc)+E(xc)   XCENC  =       901.66662476
  PAW double counting   =     24925.61821656   -24975.54477008
  entropy T*S    EENTRO =        -0.22755481
  eigenvalues    EBANDS =     -3472.55275646
  atomic energy  EATOM  =     10237.57972351
  ---------------------------------------------------
  free energy    TOTEN  =      -513.04222884 eV

  energy without entropy =     -512.81467403  energy(sigma->0) =     -512.92845143


--------------------------------------------------------------------------------------------------------




----------------------------------------- Iteration    1(  20)  ---------------------------------------


    POTLOK:  cpu time    0.63: real time    0.63
    SETDIJ:  cpu time    0.01: real time    0.01
     EDDAV:  cpu time    5.91: real time    5.92
       DOS:  cpu time    0.00: real time    0.00
    CHARGE:  cpu time    0.60: real time    0.61
    MIXING:  cpu time    0.04: real time    0.04
    --------------------------------------------
      LOOP:  cpu time    7.19: real time    7.23

 eigenvalue-minimisations  :   248
 total energy-change (2. order) :-0.6997017E-03  (-0.4040500E-05)
 number of electron     251.9999940 magnetization 
 augmentation part        7.4206115 magnetization 

 Broyden mixing:
  rms(total) = 0.33336E-03    rms(broyden)= 0.33333E-03
  rms(prec ) = 0.57382E-03
  weight for this iteration     100.00

 eigenvalues of (default mixing * dielectric matrix)
  average eigenvalue GAMMA=   1.9672
  7.9542  4.2065  2.5015  2.5015  2.0642  1.8152  1.2378  1.1238  1.1238  0.7743
  0.7743  0.9519  0.9519  0.7257  0.8012

 Free energy of the ion-electron system (eV)
  ---------------------------------------------------
  alpha Z        PSCENC =        39.19705474
  Ewald energy   TEWEN  =     49066.37118726
  -1/2 Hartree   DENC   =    -57235.28556243
  -exchange  EXHF       =         0.00000000
  -V(xc)+E(xc)   XCENC  =       901.66582947
  PAW double counting   =     24925.55491901   -24975.48163509
  entropy T*S    EENTRO =        -0.22762257
  eigenvalues    EBANDS =     -3472.41682244
  atomic energy  EATOM  =     10237.57972351
  ---------------------------------------------------
  free energy    TOTEN  =      -513.04292854 eV

  energy without entropy =     -512.81530596  energy(sigma->0) =     -512.92911725


--------------------------------------------------------------------------------------------------------




----------------------------------------- Iteration    1(  21)  ---------------------------------------


    POTLOK:  cpu time    0.64: real time    0.64
    SETDIJ:  cpu time    0.01: real time    0.01
     EDDAV:  cpu time    5.77: real time    5.79
       DOS:  cpu time    0.00: real time    0.00
    CHARGE:  cpu time    0.60: real time    0.61
    MIXING:  cpu time    0.04: real time    0.04
    --------------------------------------------
      LOOP:  cpu time    7.06: real time    7.11

 eigenvalue-minimisations  :   240
 total energy-change (2. order) :-0.5264338E-03  (-0.5202384E-05)
 number of electron     251.9999940 magnetization 
 augmentation part        7.4206107 magnetization 

 Broyden mixing:
  rms(total) = 0.18053E-03    rms(broyden)= 0.18051E-03
  rms(prec ) = 0.28541E-03
  weight for this iteration     100.00

 eigenvalues of (default mixing * dielectric matrix)
  average eigenvalue GAMMA=   2.0088
  8.1366  4.9518  2.7272  2.4361  2.1757  1.7278  1.7278  1.1174  1.1174  0.7743
  0.7743  1.0445  0.9556  0.9556  0.7256  0.7934

 Free energy of the ion-electron system (eV)
  ---------------------------------------------------
  alpha Z        PSCENC =        39.19705474
  Ewald energy   TEWEN  =     49066.37118726
  -1/2 Hartree   DENC   =    -57235.30164951
  -exchange  EXHF       =         0.00000000
  -V(xc)+E(xc)   XCENC  =       901.66503474
  PAW double counting   =     24925.14259877   -24975.06937400
  entropy T*S    EENTRO =        -0.22759639
  eigenvalues    EBANDS =     -3472.40043410
  atomic energy  EATOM  =     10237.57972351
  ---------------------------------------------------
  free energy    TOTEN  =      -513.04345497 eV

  energy without entropy =     -512.81585858  energy(sigma->0) =     -512.92965678


--------------------------------------------------------------------------------------------------------




----------------------------------------- Iteration    1(  22)  ---------------------------------------


    POTLOK:  cpu time    0.64: real time    0.64
    SETDIJ:  cpu time    0.01: real time    0.01
     EDDAV:  cpu time    5.50: real time    5.51
       DOS:  cpu time    0.00: real time    0.00
    CHARGE:  cpu time    0.62: real time    0.62
    MIXING:  cpu time    0.04: real time    0.06
    --------------------------------------------
      LOOP:  cpu time    6.81: real time    6.86

 eigenvalue-minimisations  :   224
 total energy-change (2. order) :-0.1447135E-03  (-0.1681554E-05)
 number of electron     251.9999940 magnetization 
 augmentation part        7.4206096 magnetization 

 Broyden mixing:
  rms(total) = 0.10150E-03    rms(broyden)= 0.10149E-03
  rms(prec ) = 0.15708E-03
  weight for this iteration     100.00

 eigenvalues of (default mixing * dielectric matrix)
  average eigenvalue GAMMA=   2.0703
  8.4318  5.6599  3.2086  2.4050  2.1821  1.9050  1.9050  1.2518  1.1091  1.1091
  1.1219  0.7746  0.7746  0.9131  0.9131  0.7262  0.8044

 Free energy of the ion-electron system (eV)
  ---------------------------------------------------
  alpha Z        PSCENC =        39.19705474
  Ewald energy   TEWEN  =     49066.37118726
  -1/2 Hartree   DENC   =    -57235.30127652
  -exchange  EXHF       =         0.00000000
  -V(xc)+E(xc)   XCENC  =       901.66471705
  PAW double counting   =     24925.15648113   -24975.08327568
  entropy T*S    EENTRO =        -0.22760046
  eigenvalues    EBANDS =     -3472.40061071
  atomic energy  EATOM  =     10237.57972351
  ---------------------------------------------------
  free energy    TOTEN  =      -513.04359968 eV

  energy without entropy =     -512.81599923  energy(sigma->0) =     -512.92979946


--------------------------------------------------------------------------------------------------------




----------------------------------------- Iteration    1(  23)  ---------------------------------------


    POTLOK:  cpu time    0.63: real time    0.64
    SETDIJ:  cpu time    0.01: real time    0.01
     EDDAV:  cpu time    5.77: real time    5.78
       DOS:  cpu time    0.00: real time    0.00
    --------------------------------------------
      LOOP:  cpu time    6.41: real time    6.46

 eigenvalue-minimisations  :   240
 total energy-change (2. order) :-0.5596143E-04  (-0.9718098E-06)
 number of electron     251.9999940 magnetization 
 augmentation part        7.4206096 magnetization 

 Free energy of the ion-electron system (eV)
  ---------------------------------------------------
  alpha Z        PSCENC =        39.19705474
  Ewald energy   TEWEN  =     49066.37118726
  -1/2 Hartree   DENC   =    -57235.31020542
  -exchange  EXHF       =         0.00000000
  -V(xc)+E(xc)   XCENC  =       901.66465584
  PAW double counting   =     24924.96673078   -24974.89350758
  entropy T*S    EENTRO =        -0.22759555
  eigenvalues    EBANDS =     -3472.39169922
  atomic energy  EATOM  =     10237.57972351
  ---------------------------------------------------
  free energy    TOTEN  =      -513.04365565 eV

  energy without entropy =     -512.81606010  energy(sigma->0) =     -512.92985787


--------------------------------------------------------------------------------------------------------




 average (electrostatic) potential at core
  the test charge radii are     0.7089  0.6991
  (the norm of the test charge is              1.0000)
       1 -75.7834       2 -75.6588       3 -75.8748       4 -75.3643       5 -75.2712
       6 -75.7940       7 -75.3339       8 -75.3851       9 -75.5098      10 -75.3799
      11 -75.5665      12 -75.3780      13 -61.1171      14 -59.5503      15 -61.1562
      16 -60.1050      17 -59.9752      18 -60.6577      19 -60.4372      20 -60.0382
      21 -60.4276      22 -60.7808      23 -59.3638      24 -60.3683      25 -60.4256
      26 -61.0972      27 -60.2344      28 -59.9787      29 -60.5600      30 -59.7223
      31 -60.4461      32 -60.9897      33 -60.2214      34 -59.9990      35 -59.4663
      36 -59.8654      37 -59.3808      38 -60.1016      39 -60.1437      40 -59.6560
      41 -60.3677      42 -59.3849      43 -59.5144      44 -60.4591      45 -60.2565
      46 -59.3805      47 -60.4621      48 -59.4057      49 -60.2493      50 -59.3112
      51 -59.3541      52 -60.3191      53 -59.4869      54 -60.3934      55 -60.0690
      56 -59.7273      57 -60.2965      58 -60.1707      59 -60.1237      60 -59.7264
 
 
 
 E-fermi :  -3.2346     XC(G=0):  -1.0108     alpha+bet : -0.7317


 k-point   1 :       0.0000    0.0000    0.0000
  band No.  band energies     occupation 
      1     -26.5896      2.00000
      2     -26.0355      2.00000
      3     -25.6665      2.00000
      4     -25.5580      2.00000
      5     -25.1812      2.00000
      6     -25.1217      2.00000
      7     -24.9819      2.00000
      8     -24.8354      2.00000
      9     -24.5252      2.00000
     10     -24.4195      2.00000
     11     -24.2212      2.00000
     12     -23.4877      2.00000
     13     -22.2192      2.00000
     14     -22.0812      2.00000
     15     -21.9740      2.00000
     16     -21.7502      2.00000
     17     -21.2999      2.00000
     18     -21.0589      2.00000
     19     -20.7768      2.00000
     20     -20.6278      2.00000
     21     -20.4944      2.00000
     22     -20.3279      2.00000
     23     -19.9224      2.00000
     24     -19.8182      2.00000
     25     -19.7411      2.00000
     26     -19.2552      2.00000
     27     -19.0386      2.00000
     28     -18.7049      2.00000
     29     -18.6442      2.00000
     30     -18.5513      2.00000
     31     -18.4429      2.00000
     32     -18.2454      2.00000
     33     -18.1785      2.00000
     34     -17.4169      2.00000
     35     -17.2671      2.00000
     36     -17.2613      2.00000
     37     -16.7832      2.00000
     38     -16.7102      2.00000
     39     -16.5639      2.00000
     40     -16.3825      2.00000
     41     -16.2994      2.00000
     42     -16.1349      2.00000
     43     -15.9866      2.00000
     44     -15.8988      2.00000
     45     -15.6403      2.00000
     46     -14.8695      2.00000
     47     -14.7827      2.00000
     48     -14.6840      2.00000
     49     -14.5086      2.00000
     50     -14.3623      2.00000
     51     -14.2099      2.00000
     52     -14.0888      2.00000
     53     -13.9676      2.00000
     54     -13.8895      2.00000
     55     -13.7882      2.00000
     56     -13.5128      2.00000
     57     -13.4171      2.00000
     58     -13.1628      2.00000
     59     -12.9590      2.00000
     60     -12.7995      2.00000
     61     -12.7725      2.00000
     62     -12.5832      2.00000
     63     -12.5041      2.00000
     64     -12.3444      2.00000
     65     -12.3045      2.00000
     66     -12.1545      2.00000
     67     -12.0394      2.00000
     68     -11.9663      2.00000
     69     -11.8018      2.00000
     70     -11.7598      2.00000
     71     -11.6790      2.00000
     72     -11.6610      2.00000
     73     -11.4979      2.00000
     74     -11.4432      2.00000
     75     -11.3763      2.00000
     76     -11.2972      2.00000
     77     -11.1741      2.00000
     78     -11.0677      2.00000
     79     -10.9766      2.00000
     80     -10.9524      2.00000
     81     -10.9101      2.00000
     82     -10.8458      2.00000
     83     -10.7498      2.00000
     84     -10.6816      2.00000
     85     -10.6139      2.00000
     86     -10.4740      2.00000
     87     -10.4588      2.00000
     88     -10.2466      2.00000
     89     -10.1565      2.00000
     90      -9.8985      2.00000
     91      -9.8463      2.00000
     92      -9.7302      2.00000
     93      -9.7105      2.00000
     94      -9.6775      2.00000
     95      -9.4909      2.00000
     96      -9.3871      2.00000
     97      -9.2575      2.00000
     98      -9.1475      2.00000
     99      -9.1145      2.00000
    100      -9.0700      2.00000
    101      -8.9280      2.00000
    102      -8.8729      2.00000
    103      -8.7589      2.00000
    104      -8.7332      2.00000
    105      -8.6888      2.00000
    106      -8.5665      2.00000
    107      -8.0157      2.00000
    108      -7.7496      2.00000
    109      -7.6236      2.00000
    110      -7.3858      2.00000
    111      -7.2996      2.00000
    112      -7.1917      2.00000
    113      -6.8614      2.00000
    114      -6.8194      2.00000
    115      -6.8124      2.00000
    116      -6.2844      2.00000
    117      -6.0941      2.00000
    118      -5.8959      2.00000
    119      -5.7707      2.00000
    120      -5.6467      2.00000
    121      -4.7933      2.00000
    122      -4.5655      2.00000
    123      -4.3947      2.00000
    124      -3.7654      1.99983
    125      -3.4673      1.90022
    126      -3.3211      1.45939
    127      -3.1664      0.62993
    128      -2.8731      0.01058
    129      -2.6613      0.00005
    130      -2.3467      0.00000
    131      -2.2442      0.00000
    132      -2.1261      0.00000
    133      -2.0470      0.00000
    134      -1.7862      0.00000
    135      -1.5338      0.00000
    136      -1.3841      0.00000
    137      -1.1758      0.00000
    138      -1.0039      0.00000
    139      -0.8981      0.00000
    140      -0.7503      0.00000
    141      -0.6605      0.00000
    142      -0.6169      0.00000
    143      -0.5045      0.00000
    144      -0.3582      0.00000
    145      -0.2561      0.00000
    146      -0.1061      0.00000
    147       0.0239      0.00000
    148       0.0840      0.00000
    149       0.2015      0.00000
    150       0.2254      0.00000
    151       0.2816      0.00000
    152       0.3659      0.00000
    153       0.4845      0.00000
    154       0.5525      0.00000
    155       0.5821      0.00000
    156       0.5959      0.00000
    157       0.6722      0.00000
    158       0.7227      0.00000
    159       0.7644      0.00000
    160       0.8694      0.00000


--------------------------------------------------------------------------------------------------------


 soft charge-density along one line, spin component           1
         0         1         2         3         4         5         6         7         8         9
 total charge-density along one line
 
 pseudopotential strength for first ion, spin component:           1
 14.202  17.059   0.003   0.001  -0.001   0.008   0.004  -0.004
 17.059  20.493   0.003   0.002  -0.001   0.009   0.005  -0.005
  0.003   0.003  -7.522   0.023  -0.030 -10.472   0.036  -0.047
  0.001   0.002   0.023  -7.524  -0.018   0.036 -10.475  -0.028
 -0.001  -0.001  -0.030  -0.018  -7.529  -0.047  -0.028 -10.483
  0.008   0.009 -10.472   0.036  -0.047 -13.935   0.055  -0.073
  0.004   0.005   0.036 -10.475  -0.028   0.055 -13.941  -0.043
 -0.004  -0.005  -0.047  -0.028 -10.483  -0.073  -0.043 -13.952
 total augmentation occupancy for first ion, spin component:           1
  7.373  -3.493  -0.470  -0.335   0.292   0.140   0.101  -0.093
 -3.493   1.809   0.369   0.274  -0.242  -0.084  -0.063   0.060
 -0.470   0.369   2.564  -0.138   0.244  -0.503   0.110  -0.157
 -0.335   0.274  -0.138   2.538   0.098   0.110  -0.511  -0.084
  0.292  -0.242   0.244   0.098   2.601  -0.156  -0.085  -0.536
  0.140  -0.084  -0.503   0.110  -0.156   0.121  -0.033   0.047
  0.101  -0.063   0.110  -0.511  -0.085  -0.033   0.122   0.024
 -0.093   0.060  -0.157  -0.084  -0.536   0.047   0.024   0.132


------------------------ aborting loop because EDIFF is reached ----------------------------------------


    CHARGE:  cpu time    0.60: real time    0.60
    FORLOC:  cpu time    0.16: real time    0.16
    FORNL :  cpu time    1.74: real time    1.75
    STRESS:  cpu time    5.21: real time    5.24
    FORCOR:  cpu time    0.85: real time    0.86
    FORHAR:  cpu time    0.33: real time    0.33
    MIXING:  cpu time    0.05: real time    0.05

  FORCE on cell =-STRESS in cart. coord.  units (eV):
  Direction    XX          YY          ZZ          XY          YZ          ZX
  --------------------------------------------------------------------------------------
  Alpha Z    39.19705    39.19705    39.19705
  Ewald   16392.81051 16380.36293 16293.16392     2.46888   -29.76602   -21.73458
  Hartree 19126.57100 19100.68226 19008.07162     0.29294   -43.70608   -42.70806
  E(xc)    -974.27602  -974.22037  -974.19685     0.00369     0.03221     0.09484
  Local  -38463.08024-38421.30502-38235.00349    -2.55912    78.87355    73.06942
  n-local  -335.62853  -335.04450  -333.23665     0.10474     1.44708     2.22323
  augment    -4.60835    -4.83208    -5.09076     0.01886    -0.25370    -0.43637
  Kinetic  4186.52812  4183.61490  4175.43403     0.06788    -8.10858   -12.38404
  Fock        0.00000     0.00000     0.00000     0.00000     0.00000     0.00000
  -------------------------------------------------------------------------------------
  Total     -32.48645   -31.54481   -31.66113     0.39788    -1.48154    -1.87556
  in kB      -6.50613    -6.31755    -6.34084     0.07968    -0.29671    -0.37562
  external pressure =       -6.39 kB  Pullay stress =        0.00 kB


 VOLUME and BASIS-vectors are now :
 -----------------------------------------------------------------------------
  energy-cutoff  :      520.00
  volume of cell :     8000.00
      direct lattice vectors                 reciprocal lattice vectors
    20.000000000  0.000000000  0.000000000     0.050000000  0.000000000  0.000000000
     0.000000000 20.000000000  0.000000000     0.000000000  0.050000000  0.000000000
     0.000000000  0.000000000 20.000000000     0.000000000  0.000000000  0.050000000

  length of vectors
[...]
    159       0.9012      0.00000
    160       0.9516      0.00000


--------------------------------------------------------------------------------------------------------


 soft charge-density along one line, spin component           1
         0         1         2         3         4         5         6         7         8         9
 total charge-density along one line
 
 pseudopotential strength for first ion, spin component:           1
 14.173  17.024   0.002   0.002  -0.003   0.009   0.009  -0.009
 17.024  20.450   0.003   0.003  -0.004   0.011   0.011  -0.012
  0.002   0.003  -7.500   0.023  -0.027 -10.437   0.036  -0.042
  0.002   0.003   0.023  -7.507  -0.017   0.036 -10.447  -0.026
 -0.003  -0.004  -0.027  -0.017  -7.504  -0.042  -0.026 -10.442
  0.009   0.011 -10.437   0.036  -0.042 -13.879   0.055  -0.065
  0.009   0.011   0.036 -10.447  -0.026   0.055 -13.895  -0.040
 -0.009  -0.012  -0.042  -0.026 -10.442  -0.065  -0.040 -13.887
 total augmentation occupancy for first ion, spin component:           1
  7.408  -3.553  -0.617  -0.585   0.628   0.177   0.176  -0.196
 -3.553   1.902   0.537   0.493  -0.527  -0.112  -0.112   0.127
 -0.617   0.537   2.561  -0.117   0.146  -0.510   0.102  -0.121
 -0.585   0.493  -0.117   2.599   0.055   0.101  -0.540  -0.069
  0.628  -0.527   0.146   0.055   2.586  -0.121  -0.069  -0.524
  0.177  -0.112  -0.510   0.101  -0.121   0.122  -0.031   0.037
  0.176  -0.112   0.102  -0.540  -0.069  -0.031   0.131   0.019
 -0.196   0.127  -0.121  -0.069  -0.524   0.037   0.019   0.127


------------------------ aborting loop because EDIFF is reached ----------------------------------------


    CHARGE:  cpu time    0.59: real time    0.59
    FORLOC:  cpu time    0.16: real time    0.16
    FORNL :  cpu time    1.74: real time    1.76
    STRESS:  cpu time    5.29: real time    5.32
    FORCOR:  cpu time    0.79: real time    0.79
    FORHAR:  cpu time    0.32: real time    0.32
    MIXING:  cpu time    0.02: real time    0.02

  FORCE on cell =-STRESS in cart. coord.  units (eV):
  Direction    XX          YY          ZZ          XY          YZ          ZX
  --------------------------------------------------------------------------------------
  Alpha Z    39.19705    39.19705    39.19705
  Ewald   16701.22755 16713.72795 16875.48130    16.26373    38.59264   -16.91687
  Hartree 19448.77878 19439.94880 19556.55714    18.05742     6.42359   -61.29045
  E(xc)    -981.11607  -981.01720  -980.80113     0.00294     0.09980     0.13518
  Local  -39091.68509-39091.60680-39358.26721   -35.78353   -35.50275    92.14108
  n-local  -341.43424  -341.42083  -338.47903    -0.24142     2.31845     2.58350
  augment    -5.43879    -5.61938    -6.02533     0.06042    -0.35584    -0.57561
  Kinetic  4229.70133  4226.37116  4212.14593     1.63208   -11.55825   -16.12187
  Fock        0.00000     0.00000     0.00000     0.00000     0.00000     0.00000
  -------------------------------------------------------------------------------------
  Total      -0.76948    -0.41925    -0.19127    -0.00836     0.01763    -0.04504
  in kB      -0.15410    -0.08396    -0.03831    -0.00167     0.00353    -0.00902
  external pressure =       -0.09 kB  Pullay stress =        0.00 kB


 VOLUME and BASIS-vectors are now :
 -----------------------------------------------------------------------------
  energy-cutoff  :      520.00
  volume of cell :     8000.00
      direct lattice vectors                 reciprocal lattice vectors
    20.000000000  0.000000000  0.000000000     0.050000000  0.000000000  0.000000000
     0.000000000 20.000000000  0.000000000     0.000000000  0.050000000  0.000000000
     0.000000000  0.000000000 20.000000000     0.000000000  0.000000000  0.050000000

  length of vectors
    20.000000000 20.000000000 20.000000000     0.050000000  0.050000000  0.050000000


 FORCES acting on ions
    electron-ion (+dipol)            ewald-force                    non-local-force                 convergence-correction
 -----------------------------------------------------------------------------------------------
   0.370E+03 -.396E+03 -.331E+03   -.382E+03 0.410E+03 0.343E+03   0.126E+02 -.139E+02 -.120E+02   0.855E-03 0.225E-02 -.494E-02
   0.584E+03 -.131E+03 -.854E+02   -.597E+03 0.134E+03 0.862E+02   0.130E+02 -.290E+01 -.880E+00   -.227E-01 0.287E-02 0.182E-02
   0.484E+02 -.610E+03 -.862E+02   -.488E+02 0.627E+03 0.885E+02   0.423E+00 -.173E+02 -.234E+01   -.735E-03 0.647E-02 -.165E-02
   0.231E+03 0.550E+01 -.587E+03   -.239E+03 -.624E+01 0.608E+03   0.783E+01 0.741E+00 -.203E+02   -.171E-02 -.663E-02 0.255E-02
   0.499E+03 0.104E+03 0.323E+03   -.509E+03 -.106E+03 -.331E+03   0.992E+01 0.208E+01 0.792E+01   -.354E-02 -.797E-02 0.975E-03
   0.638E+02 -.497E+03 0.310E+03   -.666E+02 0.505E+03 -.315E+03   0.287E+01 -.779E+01 0.540E+01   -.147E-02 0.877E-02 -.635E-02
   0.354E+03 0.392E+03 -.309E+03   -.362E+03 -.402E+03 0.316E+03   0.804E+01 0.101E+02 -.685E+01   -.745E-02 -.388E-02 -.204E-02
   -.682E+02 -.215E+03 0.579E+03   0.692E+02 0.220E+03 -.596E+03   -.992E+00 -.574E+01 0.173E+02   -.351E-02 -.547E-02 -.434E-02
   -.417E+03 -.468E+03 -.975E+02   0.431E+03 0.483E+03 0.100E+03   -.135E+02 -.152E+02 -.250E+01   0.112E-01 0.822E-02 0.726E-03
   -.492E+03 -.218E+03 0.330E+03   0.507E+03 0.225E+03 -.340E+03   -.150E+02 -.689E+01 0.106E+02   0.924E-02 -.229E-02 -.373E-03
   -.500E+03 0.103E+03 -.314E+03   0.510E+03 -.105E+03 0.320E+03   -.976E+01 0.265E+01 -.601E+01   0.696E-02 -.663E-02 -.205E-03
   -.304E+03 0.508E+03 0.836E+02   0.310E+03 -.519E+03 -.856E+02   -.606E+01 0.110E+02 0.203E+01   0.821E-02 -.656E-02 0.349E-02
   0.349E+03 -.158E+03 -.252E+03   -.348E+03 0.155E+03 0.256E+03   -.721E+00 0.288E+01 -.389E+01   0.824E-03 0.735E-02 -.171E-02
   0.323E+03 -.352E+03 0.841E+02   -.325E+03 0.352E+03 -.860E+02   0.132E+01 -.745E+00 0.185E+01   -.501E-02 0.702E-02 -.266E-02
   0.252E+03 -.386E+03 -.464E+02   -.256E+03 0.385E+03 0.417E+02   0.365E+01 0.855E+00 0.465E+01   -.202E-03 0.772E-02 0.590E-02
   0.425E+03 -.192E+03 0.853E+02   -.425E+03 0.195E+03 -.899E+02   -.568E+00 -.233E+01 0.459E+01   -.246E-02 -.984E-03 -.333E-03
   0.229E+03 -.362E+03 0.256E+03   -.235E+03 0.362E+03 -.258E+03   0.623E+01 -.571E-01 0.185E+01   -.323E-02 0.539E-02 -.248E-02
   0.754E+02 -.287E+03 -.365E+03   -.717E+02 0.286E+03 0.367E+03   -.371E+01 0.602E+00 -.222E+01   0.353E-02 -.587E-03 -.105E-01
   0.301E+03 0.990E+01 -.334E+03   -.303E+03 -.106E+02 0.331E+03   0.196E+01 0.648E+00 0.212E+01   0.118E-02 -.309E-02 -.386E-02
   0.382E+03 -.918E+02 0.254E+03   -.382E+03 0.964E+02 -.254E+03   -.576E+00 -.459E+01 0.229E+00   -.284E-02 -.534E-03 0.556E-02
   0.456E+03 0.131E+03 -.637E+02   -.456E+03 -.136E+03 0.636E+02   0.529E+00 0.502E+01 0.868E-01   -.135E-01 0.241E-02 0.549E-02
   -.641E+02 -.385E+03 -.260E+03   0.662E+02 0.383E+03 0.264E+03   -.209E+01 0.201E+01 -.382E+01   -.233E-02 -.667E-02 -.456E-02
   0.267E+03 -.177E+03 0.360E+03   -.267E+03 0.178E+03 -.361E+03   -.119E-01 -.523E+00 0.794E+00   0.215E-02 0.401E-02 -.114E-02
   0.360E+03 0.161E+03 -.237E+03   -.362E+03 -.158E+03 0.236E+03   0.187E+01 -.326E+01 0.557E+00   -.252E-02 0.516E-03 0.265E-02
   0.384E+02 -.185E+03 -.435E+03   -.351E+02 0.187E+03 0.435E+03   -.321E+01 -.217E+01 0.732E-01   0.748E-02 0.347E-02 -.734E-02
   -.552E+02 -.463E+03 0.620E+02   0.605E+02 0.464E+03 -.618E+02   -.537E+01 -.131E+01 -.191E+00   -.119E-02 0.595E-02 0.428E-02
   0.431E+03 0.197E+03 0.513E+02   -.431E+03 -.201E+03 -.479E+02   0.202E+00 0.314E+01 -.336E+01   -.646E-02 -.766E-02 -.831E-02
   0.168E+03 -.940E+02 0.442E+03   -.173E+03 0.923E+02 -.443E+03   0.504E+01 0.172E+01 0.118E+01   0.705E-03 -.268E-02 0.512E-02
   -.188E+03 -.348E+03 -.269E+03   0.186E+03 0.347E+03 0.272E+03   0.151E+01 0.102E+01 -.350E+01   -.502E-02 -.381E-02 0.557E-04
   -.157E+03 -.106E+03 -.442E+03   0.157E+03 0.106E+03 0.442E+03   -.600E+00 0.476E-01 -.838E+00   -.191E-02 0.591E-03 -.434E-02
   -.237E+03 -.385E+03 0.726E+02   0.235E+03 0.385E+03 -.757E+02   0.145E+01 -.287E+00 0.313E+01   -.219E-02 0.548E-02 0.600E-04
   -.109E+03 -.280E+03 0.344E+03   0.113E+03 0.280E+03 -.344E+03   -.482E+01 0.514E+00 -.690E+00   -.196E-02 0.268E-02 0.416E-02
   0.380E+02 0.188E+03 -.430E+03   -.350E+02 -.192E+03 0.430E+03   -.300E+01 0.314E+01 0.324E+00   0.190E-02 0.209E-02 0.153E-02
   0.232E+03 0.198E+03 0.373E+03   -.228E+03 -.201E+03 -.376E+03   -.361E+01 0.323E+01 0.273E+01   -.609E-02 0.687E-02 0.591E-02
   0.302E+03 0.365E+03 0.687E+02   -.302E+03 -.366E+03 -.694E+02   -.167E-01 0.109E+01 0.685E+00   -.423E-02 -.235E-02 -.136E-02
   -.252E+03 -.177E+03 -.365E+03   0.252E+03 0.176E+03 0.366E+03   0.364E+00 0.140E+00 -.117E+01   -.325E-02 0.337E-02 -.421E-02
   0.145E+03 0.121E+03 0.433E+03   -.145E+03 -.121E+03 -.433E+03   0.185E-01 0.257E+00 0.490E+00   0.124E-03 0.978E-02 0.647E-02
   0.752E+02 0.298E+03 -.363E+03   -.706E+02 -.298E+03 0.365E+03   -.460E+01 0.478E+00 -.178E+01   0.118E-02 -.122E-02 -.178E-03
   0.233E+03 0.409E+03 -.403E+02   -.232E+03 -.411E+03 0.358E+02   -.155E+01 0.234E+01 0.453E+01   -.445E-02 -.247E-02 -.170E-02
   -.155E+03 0.110E+03 -.436E+03   0.155E+03 -.110E+03 0.437E+03   -.162E+00 0.141E+00 -.616E+00   0.142E-02 0.174E-02 0.259E-03
   -.264E+03 -.291E+03 0.232E+03   0.262E+03 0.293E+03 -.231E+03   0.204E+01 -.260E+01 -.337E+00   -.354E-02 0.260E-02 0.549E-03
   0.187E+03 0.364E+03 0.245E+03   -.187E+03 -.364E+03 -.245E+03   -.422E+00 0.649E+00 0.260E+00   -.288E-02 -.436E-02 0.835E-02
   -.535E+02 0.183E+03 0.430E+03   0.533E+02 -.184E+03 -.430E+03   0.264E+00 0.103E+01 0.221E+00   0.499E-02 0.362E-02 0.504E-02
   -.438E+03 -.164E+03 -.666E+02   0.440E+03 0.160E+03 0.663E+02   -.219E+01 0.345E+01 0.233E+00   0.554E-02 0.189E-02 0.661E-02
   -.186E+03 0.244E+02 0.429E+03   0.188E+03 -.287E+02 -.429E+03   -.157E+01 0.427E+01 -.350E+00   -.342E-02 -.169E-02 0.304E-02
   0.335E+02 0.470E+03 -.611E+02   -.331E+02 -.471E+03 0.615E+02   -.321E+00 0.101E+01 -.462E+00   -.126E-02 -.368E-02 -.555E-02
   -.384E+03 -.841E+02 -.246E+03   0.383E+03 0.886E+02 0.246E+03   0.860E+00 -.449E+01 0.273E+00   0.586E-02 0.309E-02 -.240E-02
   -.574E+02 0.406E+03 -.248E+03   0.578E+02 -.407E+03 0.248E+03   -.371E+00 0.116E+01 -.360E+00   0.189E-02 0.107E-02 0.221E-02
   -.236E+03 0.193E+03 -.368E+03   0.232E+03 -.196E+03 0.370E+03   0.395E+01 0.307E+01 -.221E+01   0.223E-02 -.183E-02 -.277E-02
   0.575E+02 0.402E+03 0.254E+03   -.579E+02 -.403E+03 -.255E+03   0.400E+00 0.448E+00 0.831E+00   -.541E-02 -.642E-02 0.401E-02
   -.903E+02 0.296E+03 0.365E+03   0.898E+02 -.296E+03 -.366E+03   0.526E+00 0.401E+00 0.650E+00   0.599E-02 0.353E-02 -.352E-02
   -.466E+03 -.987E+02 0.490E+02   0.468E+03 0.969E+02 -.459E+02   -.212E+01 0.184E+01 -.310E+01   0.815E-02 -.529E-02 -.247E-02
   -.191E+03 0.361E+03 -.246E+03   0.191E+03 -.361E+03 0.246E+03   0.506E+00 0.928E+00 -.558E+00   0.306E-02 0.323E-02 0.446E-02
   -.301E+03 0.285E+02 0.361E+03   0.300E+03 -.323E+02 -.363E+03   0.131E+01 0.385E+01 0.159E+01   -.608E-04 -.117E-02 0.129E-02
   -.179E+02 0.464E+03 0.621E+02   0.126E+02 -.465E+03 -.626E+02   0.528E+01 0.107E+01 0.566E+00   -.282E-02 -.520E-02 0.239E-02
   -.362E+03 0.179E+03 0.243E+03   0.362E+03 -.179E+03 -.243E+03   -.323E+00 0.545E+00 0.636E-01   0.475E-02 -.209E-02 -.179E-02
   -.430E+03 0.191E+03 -.480E+02   0.431E+03 -.194E+03 0.436E+02   -.818E+00 0.246E+01 0.438E+01   0.616E-02 -.129E-02 0.120E-02
   -.302E+03 0.348E+03 -.752E+02   0.304E+03 -.347E+03 0.792E+02   -.121E+01 -.137E+01 -.406E+01   0.710E-02 -.285E-02 -.226E-02
   -.278E+03 0.284E+03 0.260E+03   0.278E+03 -.282E+03 -.264E+03   0.116E+00 -.246E+01 0.439E+01   0.461E-02 -.177E-02 -.293E-02
   -.458E+03 0.116E+03 0.650E+02   0.459E+03 -.117E+03 -.653E+02   -.110E+01 0.341E+00 0.355E+00   0.885E-02 0.170E-02 0.102E-02
 -----------------------------------------------------------------------------------------------
   -.387E+01 0.136E+02 -.255E+01   0.512E-12 -.142E-12 -.142E-12   0.381E+01 -.135E+02 0.258E+01   -.318E-02 0.166E-01 -.115E-02
 
 
 POSITION                                       TOTAL-FORCE (eV/Angst)
 -----------------------------------------------------------------------------------
      7.98049     12.39200     11.84910        -0.002259     -0.008310     -0.004912
      6.61673     10.72104     10.63428         0.002720     -0.003873     -0.004633
      9.58473     13.49142     10.60614        -0.004166     -0.004915     -0.008396
      8.75460     10.01219     13.45555        -0.005155     -0.008809     -0.000894
      7.03282      9.27290      8.15962        -0.001643      0.001801      0.001601
      9.78448     12.95132      8.21405         0.002954      0.000623     -0.002729
      8.01627      7.65824     11.83782        -0.000057      0.002768      0.003414
     10.36705     11.19138      6.59683         0.003414     -0.003302      0.000799
     12.41035     12.65407     10.64778         0.003124     -0.006997     -0.003685
     12.89774     11.17743      8.12359        -0.000417      0.006214      0.010184
     12.94078      9.28728     11.82543         0.002780     -0.006222      0.004026
     11.73930      6.95053      9.37828         0.000009      0.003079      0.001491
      7.30332     11.12883     11.77822         0.002494      0.012839      0.002976
      7.69234     12.56488      9.41307        -0.002498     -0.004724     -0.004798
      8.29727     12.95757     10.58218         0.003332     -0.005807      0.006092
      6.87215     11.37468      9.40828         0.005771      0.005898      0.000547
      8.41380     12.58437      8.16546         0.001942     -0.004959      0.004913
      9.25017     12.26762     12.52626        -0.006295      0.001177      0.003217
      7.69761     10.01517     12.50038        -0.005580     -0.012554     -0.000623
      7.09982     10.68767      8.22762         0.001249     -0.005416     -0.006907
      6.65774      9.30860     10.60101         0.003937      0.008567      0.005968
     10.21985     12.95605     11.77443         0.005098      0.000304      0.002474
      8.06720     11.43992      7.43594         0.002888     -0.002417     -0.009041
      7.30377      8.86977     11.76623         0.004615      0.004308      0.005393
      9.60531     11.15336     13.30043         0.003544      0.005168      0.008385
     10.37111     13.35857      9.41952         0.001086     -0.001589      0.012658
      6.85316      8.60455      9.38479         0.013549     -0.004452     -0.006151
      9.01528     10.72160      6.66584         0.006927     -0.004866     -0.002167
     11.56607     12.56177     11.78643        -0.000476      0.006692      0.010855
     10.95109     10.73073     13.30517        -0.005137     -0.002071      0.005030
     11.68111     12.90850      9.44787         0.002899     -0.001283     -0.005890
     10.73282     12.20642      7.51876         0.002653      0.004862     -0.002901
      9.61240      8.86094     13.31040        -0.008403      0.000774     -0.004423
      8.03265      8.57245      7.42956         0.001104     -0.001730     -0.004277
      7.66008      7.44696      9.40636         0.003135      0.003208     -0.005407
     11.91668     11.41395     12.53711        -0.000161      0.006433      0.005603
      9.01110      9.31704      6.69674         0.003932      0.002709     -0.009730
      9.23703      7.72113     12.56350         0.002733      0.000987      0.003099
      8.28680      7.00239     10.60118         0.002370      0.004636     -0.003950
     10.95996      9.29076     13.30151         0.000980     -0.003543     -0.002079
     11.91174     12.19679      8.24619         0.001167      0.004590     -0.000539
      8.41233      7.43514      8.17421         0.004580     -0.000893      0.007312
     10.38137      8.87445      6.71110         0.001590     -0.002017      0.000312
     13.14055     11.42223     10.59671        -0.010428      0.006299      0.004249
     11.19952     10.03357      6.71982        -0.002541      0.000615     -0.002118
      9.62405      6.54960     10.60918        -0.000491     -0.003977     -0.010703
     12.88163     10.69317     11.76332        -0.006035     -0.000629     -0.007401
     10.21684      7.00103     11.83743         0.005431      0.007057     -0.000119
     11.94038      8.59329     12.54681        -0.003623     -0.006628     -0.000585
      9.77065      6.97597      8.17602        -0.006753      0.001016      0.000943
     10.75862      7.70753      7.43267         0.011294      0.007016     -0.007995
     13.40255     10.73341      9.37817        -0.004347     -0.014703     -0.002022
     11.56697      7.44861     11.80592        -0.007808      0.001319      0.010329
     12.39766     10.01948      7.45400        -0.002747     -0.000952     -0.000979
     10.37098      6.56238      9.38570         0.003214      0.003896      0.003949
     12.76093      8.86638      8.20248        -0.004455      0.000185     -0.000458
     13.12879      8.59109     10.59365        -0.003916      0.001773     -0.004435
     12.30121      7.46270     10.58286        -0.005522      0.002235     -0.002796
     11.94695      7.71458      8.19176        -0.005677      0.000679     -0.000021
     13.39326      9.33255      9.40926        -0.011926      0.007913      0.007947
 -----------------------------------------------------------------------------------
    total drift:                               -0.059903      0.031231      0.024449


--------------------------------------------------------------------------------------------------------



  FREE ENERGIE OF THE ION-ELECTRON SYSTEM (eV)
  ---------------------------------------------------
  free  energy   TOTEN  =      -515.660494 eV

  energy  without entropy=     -515.610035  energy(sigma->0) =     -515.635264
 
 d Force = 0.1287547E-03[ 0.245E-04, 0.233E-03]  d Energy = 0.1429662E-03-0.142E-04
 d Force =-0.2915822E+01[-0.292E+01,-0.292E+01]  d Ewald  =-0.2915822E+01 0.512E-07


--------------------------------------------------------------------------------------------------------


    POTLOK:  cpu time    0.65: real time    0.65


--------------------------------------------------------------------------------------------------------


 Conjugate gradient step on ions:
 trial-energy change:   -0.000143  1 .order   -0.000129   -0.000233   -0.000024
  (g-gl).g = 0.336E-03      g.g   = 0.435E-03  gl.gl    = 0.701E-03
 g(Force)  = 0.435E-03   g(Stress)= 0.000E+00 ortho     = 0.561E-04
 gamma     =   0.47939
 trial     =   0.50399
 opt step  =   0.56318  (harmonic =   0.56318) maximal distance =0.00102795
 next E    =  -515.660481   (d E  =  -0.00013)


--------------------------------------------------------------------------------------------------------


  
 reached required accuracy - stopping structural energy minimisation
     LOOP+:  cpu time   26.04: real time   26.36
    4ORBIT:  cpu time    0.00: real time    0.00

 total amount of memory used by VASP on root node   117117. kBytes
========================================================================

   base      :      30000. kBytes
   nonlr-proj:       2180. kBytes
   fftplans  :      24017. kBytes
   grid      :      37845. kBytes
   one-center:         30. kBytes
   wavefun   :      23045. kBytes
 
  
  
 General timing and accounting informations for this job:
 ========================================================
  
                  Total CPU time used (sec):     1458.898
                            User time (sec):     1451.050
                          System time (sec):        7.848
                         Elapsed time (sec):     1478.746
  
                   Maximum memory used (kb):      318532.
                   Average memory used (kb):           0.
  
                          Minor page faults:      1937310
                          Major page faults:          165
                 Voluntary context switches:         9379
